  MPI-parallelism will be employed.
------------------------------------------------------------
          Invoking FHI-aims ...

          When using FHI-aims, please cite the following reference:

          Volker Blum, Ralf Gehrke, Felix Hanke, Paula Havu,
          Ville Havu, Xinguo Ren, Karsten Reuter, and Matthias Scheffler,
          'Ab Initio Molecular Simulations with Numeric Atom-Centered Orbitals',
          Computer Physics Communications 180, 2175-2196 (2009)

          For any questions about FHI-aims, please visit the aimsclub website
          with its forums and wiki. Contributions to both the forums and the
          wiki are warmly encouraged - they are for you, and everyone is welcome there.

------------------------------------------------------------



  Date     :  20181124, Time     :  145057.948
  Time zero on CPU 1             :   0.167280000000000E-01  s.
  Internal wall clock time zero  :           312303057.948  s.

  FHI-aims created a unique identifier for this run for later identification
  aims_uuid : FED21429-9B7A-41DC-A0ED-F347B6470228

  Build configuration of the current instance of FHI-aims
  -------------------------------------------------------
  FHI-aims version      : 181025
  Commit number         : 436c0fce9
  CMake host system     : Linux-4.15.0-38-generic
  CMake version         : 3.5.1
  Fortran compiler      : /home/knoop/local/openmpi-3.0.0/build/bin/mpifort (Intel) version 17.0.1.20161005
  Fortran compiler flags: -O3 -ip -fp-model precise -xHOST
  C compiler            : /usr/bin/gcc (GNU) version 8.1.0
  C compiler flags      : -O3
  Architecture          :
  Using MPI
  Using C files
  Using SPGlib
  Using i-PI
  Linking against: /home/knoop/local/anaconda3/pkgs/mkl-2019.0-118/lib/libmkl_intel_lp64.so
                   /home/knoop/local/anaconda3/pkgs/mkl-2019.0-118/lib/libmkl_sequential.so
                   /home/knoop/local/anaconda3/pkgs/mkl-2019.0-118/lib/libmkl_core.so
                   /home/knoop/local/anaconda3/pkgs/mkl-2019.0-118/lib/libmkl_blacs_intelmpi_lp64.so
                   /home/knoop/local/anaconda3/pkgs/mkl-2019.0-118/lib/libmkl_scalapack_lp64.so

  Using        4 parallel tasks.
  Task        0 on host theobook135 reporting.
  Task        1 on host theobook135 reporting.
  Task        2 on host theobook135 reporting.
  Task        3 on host theobook135 reporting.

  Performing system and environment tests:
  *** Environment variable OMP_NUM_THREADS is not set
  *** For performance reasons you might want to set it to 1
  | Maximum stacksize for task 0: unlimited
  | Maximum stacksize for task 1: unlimited
  | Maximum stacksize for task 2: unlimited
  | Maximum stacksize for task 3: unlimited
  | Current stacksize for task 0: unlimited
  | Current stacksize for task 1: unlimited
  | Current stacksize for task 2: unlimited
  | Current stacksize for task 3: unlimited
  | Checking for scalapack...
  | No scalapack compiled in.

  Obtaining array dimensions for all initial allocations:
  
  -----------------------------------------------------------------------
  Parsing control.in (first pass over file, find array dimensions only).
  The contents of control.in will be repeated verbatim below
  unless switched off by setting 'verbatim_writeout .false.' .
  in the first line of control.in .
  -----------------------------------------------------------------------
  
  #===============================================================================
  # FHI-aims file: ./control.in
  # Created using the Atomic Simulation Environment (ASE)
  # Sat Nov 24 14:50:57 2018
  #
  # List of parameters used to initialize the calculator:
  #     xc : pw-lda
  #     sc_accuracy_rho : 1e-06
  #     output_level : MD_light
  #     species_dir : /home/knoop/FHIaims/aimsfiles/species_defaults/light
  #     use_pimd_wrapper : ('localhost', 12345)
  #     k_grid : [4, 4, 4]
  #     compute_forces : True
  #     compute_analytical_stress : True
  #===============================================================================
  xc                                 pw-lda
  sc_accuracy_rho                    1e-06
  output_level                       MD_light
  use_pimd_wrapper                   localhost 12345
  k_grid                             4 4 4
  compute_forces                     .true.
  compute_analytical_stress          .true.
  #===============================================================================
  
  ################################################################################
  #
  #  FHI-aims code project
  #  VB, Fritz-Haber Institut, 2009
  #
  #  Suggested "light" defaults for Si atom (to be pasted into control.in file)
  #  Be sure to double-check any results obtained with these settings for post-processing,
  #  e.g., with the "tight" defaults and larger basis sets.
  #
  ################################################################################
    species        Si
  #     global species definitions
      nucleus             14
      mass                28.0855
  #
      l_hartree           4
  #
      cut_pot             3.5          1.5  1.0
      basis_dep_cutoff    1e-4
  #
      radial_base         42 5.0
      radial_multiplier   1
      angular_grids       specified
        division   0.5866   50
        division   0.9616  110
        division   1.2249  194
        division   1.3795  302
  #      division   1.4810  434
  #      division   1.5529  590
  #      division   1.6284  770
  #      division   1.7077  974
  #      division   2.4068 1202
  #      outer_grid   974
        outer_grid 302
  ################################################################################
  #
  #  Definition of "minimal" basis
  #
  ################################################################################
  #     valence basis states
      valence      3  s   2.
      valence      3  p   2.
  #     ion occupancy
      ion_occ      3  s   1.
      ion_occ      3  p   1.
  ################################################################################
  #
  #  Suggested additional basis functions. For production calculations,
  #  uncomment them one after another (the most important basis functions are
  #  listed first).
  #
  #  Constructed for dimers: 1.75 A, 2.0 A, 2.25 A, 2.75 A, 3.75 A
  #
  ################################################################################
  #  "First tier" - improvements: -571.96 meV to -37.03 meV
       hydro 3 d 4.2
       hydro 2 p 1.4
  #     hydro 4 f 6.2
       ionic 3 s auto
  #  "Second tier" - improvements: -16.76 meV to -3.03 meV
  #     hydro 3 d 9
  #     hydro 5 g 9.4
  #     hydro 4 p 4
  #     hydro 1 s 0.65
  #  "Third tier" - improvements: -3.89 meV to -0.60 meV
  #     ionic 3 d auto
  #     hydro 3 s 2.6
  #     hydro 4 f 8.4
  #     hydro 3 d 3.4
  #     hydro 3 p 7.8
  #  "Fourth tier" - improvements: -0.33 meV to -0.11 meV
  #     hydro 2 p 1.6
  #     hydro 5 g 10.8
  #     hydro 5 f 11.2
  #     hydro 3 d 1
  #     hydro 4 s 4.5
  #  Further basis functions that fell out of the optimization - noise
  #  level... < -0.08 meV
  #     hydro 4 d 6.6
  #     hydro 5 g 16.4
  #     hydro 4 d 9
  
  -----------------------------------------------------------------------
  Completed first pass over input file control.in .
  -----------------------------------------------------------------------
  
  
  -----------------------------------------------------------------------
  Parsing geometry.in (first pass over file, find array dimensions only).
  The contents of geometry.in will be repeated verbatim below
  unless switched off by setting 'verbatim_writeout .false.' .
  in the first line of geometry.in .
  -----------------------------------------------------------------------
  
  #=======================================================
  # FHI-aims file: ./geometry.in
  # Created using the Atomic Simulation Environment (ASE)
  # Sat Nov 24 14:50:57 2018
  #=======================================================
  lattice_vector 0.0000000000000000 2.7999999999999998 2.7999999999999998
  lattice_vector 2.7999999999999998 0.0000000000000000 2.7999999999999998
  lattice_vector 2.7999999999999998 2.7999999999999998 0.0000000000000000
  atom 0.0000000000000000 0.0000000000000000 0.0000000000000000 Si
  atom 1.3999999999999999 1.3999999999999999 1.3999999999999999 Si
  
  -----------------------------------------------------------------------
  Completed first pass over input file geometry.in .
  -----------------------------------------------------------------------
  

  Basic array size parameters:
  | Number of species                 :        1
  | Number of atoms                   :        2
  | Number of lattice vectors         :        3
  | Max. basis fn. angular momentum   :        2
  | Max. atomic/ionic basis occupied n:        3
  | Max. number of basis fn. types    :        3
  | Max. radial fns per species/type  :        5
  | Max. logarithmic grid size        :     1346
  | Max. radial integration grid size :       42
  | Max. angular integration grid size:      302
  | Max. angular grid division number :        8
  | Radial grid for Hartree potential :     1346
  | Number of spin channels           :        1

------------------------------------------------------------
          Reading file control.in.
------------------------------------------------------------
  XC: Using Perdew-Wang parametrisation of Ceperley-Alder LDA.
  Convergence accuracy of self-consistent charge density:  0.1000E-05
  Requested output level: MD_light            
  Using external wrapper (i-PI) for performing (path integral) molecular dynamics
  **Attention: initial geometry.in file will be ignored!
  Found k-point grid:         4         4         4
  Forces will be computed.
 
  Reading configuration options for species Si                  .
  | Found nuclear charge :  14.0000
  | Found atomic mass :    28.0855000000000      amu
  | Found l_max for Hartree potential  :   4
  | Found cutoff potl. onset [A], width [A], scale factor :    3.50000    1.50000    1.00000
  | Threshold for basis-dependent cutoff potential is   0.100000E-03
  | Found data for basic radial integration grid :    42 points, outermost radius =    5.000 A
  | Found multiplier for basic radial grid :   1
  | Found angular grid specification: user-specified.
  | Specified grid contains     5 separate shells.
  | Check grid settings after all constraints further below.
  | Found free-atom valence shell :  3 s   2.000
  | Found free-atom valence shell :  3 p   2.000
  | Found free-ion valence shell :  3 s   1.000
  | Found free-ion valence shell :  3 p   1.000
  | Found hydrogenic basis function :  3 d   4.200
  | Found hydrogenic basis function :  2 p   1.400
  | Found ionic basis function :  3 s , default cutoff radius.
  Species Si                  : Missing cutoff potential type.
  Defaulting to exp(1/x)/(1-x)^2 type cutoff potential.
  Species Si: No 'logarithmic' tag. Using default grid for free atom:
  | Default logarithmic grid data [bohr] : 0.1000E-03 0.1000E+03 0.1012E+01
  | Will include ionic basis functions of  2.0-fold positive Si                   ion.
  Species Si: On-site basis accuracy parameter (for Gram-Schmidt orthonormalisation) not specified.
  Using default value basis_acc =  0.1000000E-03.
  Species Si                  : Using default innermost maximum threshold i_radial=  2 for radial functions.
  Species Si                  : Default cutoff onset for free atom density etc. : 0.35000000E+01 AA.
  Species Si                  : Basic radial grid will be enhanced according to radial_multiplier =   1, to contain    42 grid points.
 
  Finished reading input file 'control.in'. Consistency checks are next.
 
  MPI_IN_PLACE appears to work with this MPI implementation.
  | Keeping use_mpi_in_place .true. (see manual).
  Target number of points in a grid batch is not set. Defaulting to  100
  Method for grid partitioning is not set. Defaulting to parallel hash+maxmin partitioning.
  Batch size limit is not set. Defaulting to    200
  By default, will store active basis functions for each batch.
  If in need of memory, prune_basis_once .false. can be used to disable this option.
  communication_type for Hartree potential was not specified.
  Defaulting to calc_hartree .
  Defaulting to Pulay charge density mixer.
  Pulay mixer: Number of relevant iterations not set.
  Defaulting to    8 iterations.
  Pulay mixer: Number of initial linear mixing iterations not set.
  Defaulting to    0 iterations.
  Work space size for distributed Hartree potential not set.
  Defaulting to   0.200000E+03 MB.
  Mixing parameter for charge density mixing has not been set.
  Using default: charge_mix_param =     0.0500.
  The mixing parameter will be adjusted in iteration number     2 of the first full s.c.f. cycle only.
  Algorithm-dependent basis array size parameters:
  | n_max_pulay                         :        8
  Maximum number of self-consistency iterations not provided.
  Presetting  1000 iterations.
  Presetting      1001 iterations before the initial mixing cycle
  is restarted anyway using the sc_init_iter criterion / keyword.
  Presetting a factor      1.000 between actual scf density residual
  and density convergence criterion sc_accuracy_rho below which sc_init_iter
  takes no effect.
  Geometry relaxation not requested: no relaxation will be performed.
  Analytical stress will be computed.
  Analytical stress calculation: Only the upper triangle is calculated.
                                 Final output is symmetrized.
  Analytical stress calculation: scf convergence accuracy of stress not set.
                                 Analytical stress self-consistency will not be checked explicitly.
                                 Be sure to set other criteria like sc_accuracy_rho tight enough.
  Force calculation: scf convergence accuracy of forces not set.
  Defaulting to 'sc_accuracy_forces not_checked'.
  Handling of forces: Unphysical translation and rotation will be removed from forces.
  No accuracy limit for integral partition fn. given. Defaulting to  0.1000E-14.
  No threshold value for u(r) in integrations given. Defaulting to  0.1000E-05.
  No occupation type (smearing scheme) given. Defaulting to Gaussian broadening, width =  0.1000E-01 eV.
  The width will be adjusted in iteration number     2 of the first full s.c.f. cycle only.
  S.C.F. convergence parameters will be adjusted in iteration number     2 of the first full s.c.f. cycle only.
  No accuracy for occupation numbers given. Defaulting to  0.1000E-12.
  No threshold value for occupation numbers given. Defaulting to  0.0000E+00.
  No accuracy for fermi level given. Defaulting to  0.1000E-19.
  Maximum # of iterations to find E_F not set. Defaulting to  200.
  Preferred method for the eigenvalue solver ('KS_method') not specified in 'control.in'.
  Defaulting to serial version, 'lapack_fast', since more k-points than CPUs available.
  Will not use alltoall communication since running on < 1024 CPUs.
  Threshold for basis singularities not set.
  Default threshold for basis singularities:  0.1000E-04
  partition_type (choice of integration weights) for integrals was not specified.
  | Using a version of the partition function of Stratmann and coworkers ('stratmann_sparse').
  | At each grid point, the set of atoms used to build the partition table is smoothly restricted to
  | only those atoms whose free-atom density would be non-zero at that grid point.
  Partitioning for Hartree potential was not defined. Using partition_type for integrals.
  | Adjusted default value of keyword multip_moments_threshold to:       0.10000000E-11
  | This value may affect high angular momentum components of the Hartree potential in periodic systems.
  Spin handling was not defined in control.in. Defaulting to unpolarized case.
  Angular momentum expansion for Kerker preconditioner not set explicitly.
  | Using default value of   0
  No explicit requirement for turning off preconditioner.
  | By default, it will be turned off when the charge convergence reaches
  | sc_accuracy_rho  =   0.100000E-05
  No special mixing parameter while Kerker preconditioner is on.
  Using default: charge_mix_param =     0.0500.
  No q(lm)/r^(l+1) cutoff set for long-range Hartree potential.
  | Using default value of  0.100000E-09 .
  | Verify using the multipole_threshold keyword.
  Defaulting to new monopole extrapolation.
  Density update method: automatic selection selected.
  Using density matrix based charge density update.
  Using density matrix based charge density update.
  Using packed matrix style: index .
  Defaulting to use time-reversal symmetry for k-point grid.
------------------------------------------------------------


------------------------------------------------------------
          Reading geometry description geometry.in.
------------------------------------------------------------
 * Warning! You did not set the 'relativistic' flag in input file 'control.in'.
 * Since you are not attempting to treat any elements beyond Ca(Z=20), FHI-aims
 * will default to 'relativistic none'.
 * You must ensure that this is really what you want!!
 * For example, DO NOT compute total-energy differences between results from
 * different settings of the 'relativistic' flag.
  Input structure read successfully.
  The structure contains        2 atoms,  and a total of         28.000 electrons.

  Input geometry:
  | Unit cell:
  |        0.00000000        2.80000000        2.80000000
  |        2.80000000        0.00000000        2.80000000
  |        2.80000000        2.80000000        0.00000000
  | Atomic structure:
  |       Atom                x [A]            y [A]            z [A]
  |    1: Species Si            0.00000000        0.00000000        0.00000000
  |    2: Species Si            1.40000000        1.40000000        1.40000000

  Lattice parameters for 3D lattice (in Angstroms) :     3.959798    3.959798    3.959798
  Angle(s) between unit vectors (in degrees)       :    60.000000   60.000000   60.000000

  |

  | The smallest distance between any two atoms is         2.42487113 AA.
  |
  | The first atom of this pair is atom number                      1 .
  | The second atom of this pair is atom number                     2 .
  | Wigner-Seitz cell of the first atom image           0     1     0 .
  | (The Wigner-Seitz cell of the second atom is 0 0 0  by definition.)

  Symmetry information by spglib:
  | Precision set to  0.1E-04
  | Number of Operations  : 48
  | Space group           : 227
  | International         : Fd-3m    d
  | Schoenflies           : Oh^7

  Quantities derived from the lattice vectors:
  | Reciprocal lattice vector 1: -1.121997  1.121997  1.121997
  | Reciprocal lattice vector 2:  1.121997 -1.121997  1.121997
  | Reciprocal lattice vector 3:  1.121997  1.121997 -1.121997
  | Unit cell volume                               :   0.439040E+02  A^3

  Range separation radius for Ewald summation (hartree_convergence_parameter):      4.02196949 bohr.

  Number of empty states per atom not set in control.in - providing a guess from actual geometry.
  | Total number of empty states used during s.c.f. cycle:        6
  If you use a very high smearing, use empty_states (per atom!) in control.in to increase this value.

  Structure-dependent array size parameters: 
  | Maximum number of distinct radial functions  :        8
  | Maximum number of basis functions            :       36
  | Number of Kohn-Sham states (occupied + empty):       20
------------------------------------------------------------

************************** W A R N I N G *******************************
* You are using the PIMD wrapper. Specifications and positions         *
* in geometry.in will be IGNORED - all is received from the wrapper.   *
* Please make sure species are declared in the same order in           *
* geometry.in and wrapper input.                                       *
************************************************************************


------------------------------------------------------------
          Preparing all fixed parts of the calculation.
------------------------------------------------------------
  Determining machine precision:
    2.225073858507201E-308
  Setting up grids for atomic and cluster calculations.

  Creating wave function, potential, and density for free atoms.

  Species: Si

  List of occupied orbitals and eigenvalues:
    n    l              occ      energy [Ha]    energy [eV]
    1    0           2.0000       -65.172154     -1773.4245
    2    0           2.0000        -5.063250      -137.7780
    3    0           2.0000        -0.389854       -10.6085
    2    1           6.0000        -3.503088       -95.3239
    3    1           2.0000        -0.144317        -3.9271

  Creating fixed part of basis set: Ionic, confined, hydrogenic.
 
  Si                   ion:

  List of free ionic orbitals and eigenvalues:
    n    l      energy [Ha]    energy [eV]
    1    0       -66.042358     -1797.1040
    2    0        -5.909940      -160.8177
    3    0        -1.075552       -29.2673
    2    1        -4.350945      -118.3952
    3    1        -0.781825       -21.2745


  List of ionic basis orbitals and eigenvalues:
    n    l      energy [Ha]    energy [eV]    outer radius [A]
    3    0        -1.075532       -29.2667       4.214062

 
  Si                   hydrogenic:
 
  List of hydrogenic basis orbitals: 
    n    l      effective z      eigenvalue [eV]  inner max. [A]     outer max. [A]     outer radius [A]   
    3    2         4.200000       -26.6624           1.139231           1.139231           4.534782
    2    1         1.400000        -6.4613           1.472672           1.472672           4.590560
 

  Adding cutoff potential to free-atom effective potential.
  Creating atomic-like basis functions for current effective potential.

  Species Si                  :

  List of atomic basis orbitals and eigenvalues:
    n    l      energy [Ha]    energy [eV]    outer radius [A]
    1    0       -65.172154     -1773.4245       0.789468
    2    0        -5.063250      -137.7780       2.815114
    3    0        -0.389854       -10.6085       4.534782
    2    1        -3.503088       -95.3239       3.259919
    3    1        -0.144317        -3.9271       4.590560

  Assembling full basis from fixed parts.
  | Species Si :   atomic orbital   1 s accepted.
  | Species Si :   atomic orbital   2 s accepted.
  | Species Si :    ionic orbital   3 s accepted.
  | Species Si :   atomic orbital   3 s accepted.
  | Species Si :   atomic orbital   2 p accepted.
  | Species Si :   atomic orbital   3 p accepted.
  | Species Si :    hydro orbital   2 p accepted.
  | Species Si :    hydro orbital   3 d accepted.
 
  Basis size parameters after reduction:
  | Total number of radial functions:        8
  | Total number of basis functions :       36
 
  Per-task memory consumption for arrays in subroutine allocate_ext:
  |           2.068716MB.
  Testing on-site integration grid accuracy.
  |  Species  Function  <phi|h_atom|phi> (log., in eV)  <phi|h_atom|phi> (rad., in eV)
           1        1              -1773.4245382485              -1773.4238465557
           1        2               -137.7780422334               -137.7780383875
           1        3                -10.2584966028                -10.2583645750
           1        4                  5.0172755718                  4.9378117642 ***
           1        5                -95.3238759277                -95.3238759093
           1        6                 -3.9367923774                 -3.9521708118
           1        7                  6.3364624620                  6.1540591176 ***
           1        8                  6.2680607190                  6.2659437726
 * Note: Onsite integrals marked "***" above are less accurate than
 * onsite_accuracy_threshold =    0.03000 eV. Usually, this is harmless.
 * When in doubt, tighten the "radial" and/or "radial_multiplier" flags to check.

  Preparing densities etc. for the partition functions (integrals / Hartree potential).

  Preparations completed.
  max(cpu_time)          :      0.113 s.
  Wall clock time (cpu1) :      0.119 s.
------------------------------------------------------------

************************** W A R N I N G *******************************
* Skipping the SCF initialization for now - done inside wrapper      *
************************************************************************

  @ DRIVER MODE: Connecting to host:port localhost       12345
  @ DRIVER MODE: Message from server: STATUS      
  @ DRIVER MODE: Message from server: POSDATA     
  @ DRIVER MODE: Received positions 

------------------------------------------------------------
          Begin self-consistency loop: Initialization.

          Date     :  20181124, Time     :  145058.126
------------------------------------------------------------

  Initializing index lists of integration centers etc. from given atomic structure:
  Mapping all atomic coordinates to central unit cell.

  Initializing the k-points
          Using symmetry for reducing the k-points
  | k-points reduced from:       64 to       36
  | Number of k-points                             :        36
  The eigenvectors in the calculations are COMPLEX.
  | K-points in task   0:         9
  | K-points in task   1:         9
  | K-points in task   2:         9
  | K-points in task   3:         9
  | Number of basis functions in the Hamiltonian integrals :      1324
  | Number of basis functions in a single unit cell        :        36
  | Number of centers in hartree potential         :       708
  | Number of centers in hartree multipole         :       318
  | Number of centers in electron density summation:       190
  | Number of centers in basis integrals           :       198
  | Number of centers in integrals                 :       101
  | Number of centers in hamiltonian               :       190
  | Consuming         63 KiB for k_phase.
  | Number of super-cells (origin) [n_cells]                     :        2197
  | Number of super-cells (after PM_index) [n_cells]             :         112
  | Number of super-cells in hamiltonian [n_cells_in_hamiltonian]:         112
  | Size of matrix packed + index [n_hamiltonian_matrix_size] :       39615
  Partitioning the integration grid into batches with parallel hashing+maxmin method.
  | Number of batches:      137
  | Maximal batch size:     111
  | Minimal batch size:      52
  | Average batch size:      81.810
  | Standard deviation of batch sizes:      15.462

  Integration load balanced across     4 MPI tasks.
  Work distribution over tasks is as follows:
  Task     0 has       2842 integration points.
  Task     1 has       2811 integration points.
  Task     2 has       2792 integration points.
  Task     3 has       2763 integration points.
  Initializing partition tables, free-atom densities, potentials, etc. across the integration grid (initialize_grid_storage).
  | initialize_grid_storage: Actual outermost partition radius vs. multipole_radius_free
  | (-- VB: in principle, multipole_radius_free should be larger, hence this output)
  | Species        1: Confinement radius =              4.999999999999999 AA, multipole_radius_free =              5.000694715736543 AA.
  | Species        1: outer_partition_radius set to              5.000694715736543 AA .
  | The sparse table of interatomic distances needs        212.76 kbyte instead of       313.63 kbyte of memory.
  | Net number of integration points:    11208
  | of which are non-zero points    :     9852
  | Numerical average free-atom electrostatic potential    :    -12.00369451 eV
  Renormalizing the initial density to the exact electron count on the 3D integration grid.
  | Initial density: Formal number of electrons (from input files) :      28.0000000000
  | Integrated number of electrons on 3D grid     :      28.0040064842
  | Charge integration error                      :       0.0040064842
  | Normalization factor for density and gradient :       0.9998569317
  Obtaining max. number of non-zero basis functions in each batch (get_n_compute_maxes).
  | Maximal number of non-zero basis functions:      454 in task     0
  | Maximal number of non-zero basis functions:      469 in task     1
  | Maximal number of non-zero basis functions:      462 in task     2
  | Maximal number of non-zero basis functions:      427 in task     3
  Allocating        0.104 MB for KS_eigenvector_complex
  Integrating Hamiltonian matrix: batch-based integration.
  Time summed over all CPUs for integration: real work        0.417 s, elapsed        0.429 s
  Integrating overlap matrix.
  Time summed over all CPUs for integration: real work        0.287 s, elapsed        0.289 s
  Decreasing sparse matrix size:
   Tolerance:  9.999999824516700E-014
   Hamiltonian matrix
  | Array has    35451 nonzero elements out of    39615 elements
  | Sparsity factor is 0.105
   Overlap matrix
  | Array has    32024 nonzero elements out of    39615 elements
  | Sparsity factor is 0.192
  New size of hamiltonian matrix:       35707

  Updating Kohn-Sham eigenvalues, eigenvectors, occupation numbers, and Fermi level.
  Solving generalized eigenproblem
  Transforming overlap matrix and checking for singularities.
  Overlap matrix is nonsingular at first k-point:
  | Lowest eigenvalue:  0.594238E-02

  Obtaining occupation numbers and chemical potential using ELSI.
  | Chemical potential (Fermi level):    -5.60279457 eV
  Writing Kohn-Sham eigenvalues.
  K-point:       1 at    0.000000    0.000000    0.000000 (in units of recip. lattice)

  State    Occupation    Eigenvalue [Ha]    Eigenvalue [eV]
      1       2.00000         -65.188886        -1773.87983
      2       2.00000         -65.188886        -1773.87983
      3       2.00000          -5.084068         -138.34452
      4       2.00000          -5.083870         -138.33914
      5       2.00000          -3.523870          -95.88939
      6       2.00000          -3.523870          -95.88939
      7       2.00000          -3.523870          -95.88939
      8       2.00000          -3.523430          -95.87742
      9       2.00000          -3.523430          -95.87742
     10       2.00000          -3.523430          -95.87742
     11       2.00000          -0.638380          -17.37119
     12       2.00000          -0.227068           -6.17884
     13       2.00000          -0.227068           -6.17884
     14       2.00000          -0.227068           -6.17884
     15       0.00000          -0.139258           -3.78941
     16       0.00000          -0.126761           -3.44933
     17       0.00000          -0.126761           -3.44933
     18       0.00000          -0.126761           -3.44933
     19       0.00000           0.070009            1.90503
     20       0.00000           0.070009            1.90503

  What follows are estimated values for band gap, HOMO, LUMO, etc.
  | They are estimated on a discrete k-point grid and not necessarily exact.
  | For converged numbers, create a DOS and/or band structure plot on a denser k-grid.

  Highest occupied state (VBM) at     -6.17884083 eV (relative to internal zero)
  | Occupation number:      2.00000000
  | K-point:       1 at    0.000000    0.000000    0.000000 (in units of recip. lattice)

  Lowest unoccupied state (CBM) at    -5.05299622 eV (relative to internal zero)
  | Occupation number:      0.00000000
  | K-point:       9 at    0.000000    0.500000    0.500000 (in units of recip. lattice)

  ESTIMATED overall HOMO-LUMO gap:      1.12584460 eV between HOMO at k-point 1 and LUMO at k-point 9
  | This appears to be an indirect band gap.
  | Smallest direct gap :      2.38943476 eV for k_point 1 at    0.000000    0.500000    0.500000 (in units of recip. lattice)
  The gap value is above 0.2 eV. Unless you are using a very sparse k-point grid,
  this system is most likely an insulator or a semiconductor.
  Calculating total energy contributions from superposition of free atom densities.

  Total energy components:
  | Sum of eigenvalues            :        -326.56885579 Ha       -8886.39070051 eV
  | XC energy correction          :         -39.49476876 Ha       -1074.70733835 eV
  | XC potential correction       :          52.17829646 Ha        1419.84368758 eV
  | Free-atom electrostatic energy:        -262.93208917 Ha       -7154.74617574 eV
  | Hartree energy correction     :           0.00000000 Ha           0.00000000 eV
  | Entropy correction            :           0.00000000 Ha           0.00000000 eV
  | ---------------------------
  | Total energy                  :        -576.81741725 Ha      -15696.00052703 eV
  | Total energy, T -> 0          :        -576.81741725 Ha      -15696.00052703 eV  <-- do not rely on this value for anything but (periodic) metals
  | Electronic free energy        :        -576.81741725 Ha      -15696.00052703 eV

  Derived energy quantities:
  | Kinetic energy                :         575.40042072 Ha       15657.44208970 eV
  | Electrostatic energy          :       -1112.72306921 Ha      -30278.73527838 eV
  | Energy correction for multipole
  | error in Hartree potential    :           0.00000000 Ha           0.00000000 eV
  | Sum of eigenvalues per atom                           :       -4443.19535025 eV
  | Total energy (T->0) per atom                          :       -7848.00026351 eV  <-- do not rely on this value for anything but (periodic) metals
  | Electronic free energy per atom                       :       -7848.00026351 eV
  Initialize hartree_potential_storage
  Max. number of atoms included in rho_multipole:            2

  End scf initialization - timings             :  max(cpu_time)    wall_clock(cpu1)
  | Time for scf. initialization               :        0.332 s           0.332 s
  | Boundary condition initialization          :        0.065 s           0.066 s
  | Integration                                :        0.180 s           0.181 s
  | Solution of K.-S. eqns.                    :        0.011 s           0.011 s
  | Grid partitioning                          :        0.017 s           0.017 s
  | Preloading free-atom quantities on grid    :        0.001 s           0.001 s
  | Free-atom superposition energy             :        0.007 s           0.007 s
  | Total energy evaluation                    :        0.000 s           0.000 s

  Partial memory accounting:
  | Current value for overall tracked memory usage on task 0  :           0.818 MB
  | Peak value for overall tracked memory usage on task 0     :           4.158 MB after allocating wave_s
  | Largest tracked array allocation on task 0 so far         :           1.649 MB  when allocating hamiltonian_shell
  Note:  These values currently only include a subset of arrays which are explicitly tracked.
  The "true" memory usage will be greater.
------------------------------------------------------------
Convergence:    q app. |  density  | eigen (eV) | Etot (eV) | forces (eV/A) |       CPU time |     Clock time
  SCF    1 :  0.42E-02 |  0.10E+00 |  -0.36E+00 |  0.15E-01 |             . |        0.368 s |        0.368 s
  SCF    2 :  0.83E-02 |  0.97E-01 |   0.19E+02 |  0.13E+00 |             . |        0.453 s |        0.453 s
  SCF    3 :  0.79E-02 |  0.15E-01 |  -0.76E+00 |  0.22E-02 |             . |        0.442 s |        0.442 s
  SCF    4 :  0.52E-02 |  0.14E-01 |  -0.33E+01 |  0.74E-02 |             . |        0.449 s |        0.449 s
  SCF    5 :  0.40E-02 |  0.77E-02 |  -0.86E+00 |  0.78E-03 |             . |        0.470 s |        0.471 s
  SCF    6 :  0.40E-02 |  0.65E-02 |  -0.19E+00 |  0.13E-03 |             . |        0.444 s |        0.444 s
  SCF    7 :  0.39E-02 |  0.61E-02 |  -0.35E+00 |  0.25E-03 |             . |        0.518 s |        0.518 s
  SCF    8 :  0.41E-02 |  0.53E-02 |  -0.87E+00 |  0.52E-03 |             . |        0.418 s |        0.418 s
  SCF    9 :  0.41E-02 |  0.34E-02 |  -0.36E+00 |  0.18E-03 |             . |        0.408 s |        0.408 s
  SCF   10 :  0.41E-02 |  0.26E-02 |  -0.12E+01 |  0.43E-03 |             . |        0.407 s |        0.407 s
  SCF   11 :  0.41E-02 |  0.99E-06 |  -0.27E-03 |  0.34E-07 |             . |        0.467 s |        0.467 s
  SCF   12 :  0.41E-02 |  0.20E-06 |  -0.67E-04 | -0.23E-07 |      0.46E-08 |        1.094 s |        1.094 s
  SCF   13 :  0.41E-02
  Analytical stress tensor components [eV]         xx                  yy                  zz                  xy                  xz                  yz
  -----------------------------------------------------------------------------------------------------------------------------------------------------------
    Nuclear Hellmann-Feynman      :    -0.1310368292E+02   -0.1310384736E+02   -0.1310384736E+02   -0.3338683269E-12    0.6451968586E-13   -0.3131368090E-12
    Multipole Hellmann-Feynman    :    -0.3288993599E+02   -0.3288994585E+02   -0.3288994585E+02    0.6767217129E-12   -0.9667008596E-13    0.9731149172E-18
    On-site Multipole corrections :    -0.2664864082E+00   -0.2664864081E+00   -0.2664864081E+00   -0.9667425793E-11   -0.3407767592E-11    0.1450113869E-11
    Strain deriv. of the orbitals :     0.4797341814E+02    0.4797359322E+02    0.4797359322E+02    0.1442379928E-09    0.2654675123E-09    0.5313217216E-09
    On-site kinetic E corrections :     0.2902174093E+00    0.2902174092E+00    0.2902174093E+00   -0.7347243603E-11    0.4350341607E-11    0.6960546571E-11
  -----------------------------------------------------------------------------------------------------------------------------------------------------------
  Sum of all contributions        :     0.2003530236E+01    0.2003531010E+01    0.2003531009E+01    0.1275661768E-09    0.2663779359E-09    0.5394192462E-09

  +-------------------------------------------------------------------+
  |              Analytical stress tensor - Symmetrized               |
  |                  Cartesian components [eV/A**3]                   |
  +-------------------------------------------------------------------+
  |                x                y                z                |
  |                                                                   |
  |  x         0.04563434       0.00000000       0.00000000           |
  |  y         0.00000000       0.04563436       0.00000000           |
  |  z         0.00000000       0.00000000       0.04563436           |
  |                                                                   |
  |  Pressure:      -0.04563436   [eV/A**3]                           |
  |                                                                   |
  +-------------------------------------------------------------------+

 |  0.23E-07 |   0.28E-05 |  0.31E-08 |      0.67E-10 |        3.721 s |        3.723 s

  Total energy components:
  | Sum of eigenvalues            :        -326.17499727 Ha       -8875.67326501 eV
  | XC energy correction          :         -39.53134417 Ha       -1075.70260589 eV
  | XC potential correction       :          52.22634334 Ha        1421.15110964 eV
  | Free-atom electrostatic energy:        -262.93208917 Ha       -7154.74617574 eV
  | Hartree energy correction     :          -0.39939037 Ha         -10.86796481 eV
  | Entropy correction            :           0.00000000 Ha           0.00000000 eV
  | ---------------------------
  | Total energy                  :        -576.81147763 Ha      -15695.83890182 eV
  | Total energy, T -> 0          :        -576.81147763 Ha      -15695.83890182 eV  <-- do not rely on this value for anything but (periodic) metals
  | Electronic free energy        :        -576.81147763 Ha      -15695.83890182 eV

  Derived energy quantities:
  | Kinetic energy                :         575.17223818 Ha       15651.23292671 eV
  | Electrostatic energy          :       -1112.45237164 Ha      -30271.36922263 eV
  | Energy correction for multipole
  | error in Hartree potential    :           0.01249976 Ha           0.34013572 eV
  | Sum of eigenvalues per atom                           :       -4437.83663251 eV
  | Total energy (T->0) per atom                          :       -7847.91945091 eV  <-- do not rely on this value for anything but (periodic) metals
  | Electronic free energy per atom                       :       -7847.91945091 eV
  What follows are estimated values for band gap, HOMO, LUMO, etc.
  | They are estimated on a discrete k-point grid and not necessarily exact.
  | For converged numbers, create a DOS and/or band structure plot on a denser k-grid.

  Highest occupied state (VBM) at     -5.71272017 eV (relative to internal zero)
  | Occupation number:      2.00000000
  | K-point:       1 at    0.000000    0.000000    0.000000 (in units of recip. lattice)

  Lowest unoccupied state (CBM) at    -4.91004542 eV (relative to internal zero)
  | Occupation number:      0.00000000
  | K-point:       9 at    0.000000    0.500000    0.500000 (in units of recip. lattice)

  ESTIMATED overall HOMO-LUMO gap:      0.80267475 eV between HOMO at k-point 1 and LUMO at k-point 9
  | This appears to be an indirect band gap.
  | Smallest direct gap :      2.28781976 eV for k_point 23 at    0.000000    0.500000    0.500000 (in units of recip. lattice)
  The gap value is above 0.2 eV. Unless you are using a very sparse k-point grid,
  this system is most likely an insulator or a semiconductor.

  Self-consistency cycle converged.

  Removing unitary transformations (pure translations, rotations) from forces on atoms.
  Atomic forces before filtering:
  | Net force on center of mass :  -0.233695E-08  0.128501E-08  0.129005E-08 eV/A
  Atomic forces after filtering:
  | Net force on center of mass :  -0.664615E-24  0.166154E-24  0.000000E+00 eV/A

  Energy and forces in a compact form:
  | Total energy uncorrected      :         -0.156958389018164E+05 eV
  | Total energy corrected        :         -0.156958389018164E+05 eV  <-- do not rely on this value for anything but (periodic) metals
  | Electronic free energy        :         -0.156958389018164E+05 eV
  Total atomic forces (unitary forces cleaned) [eV/Ang]:
  |   1          0.139033617199016E-08          0.268308464679969E-09         -0.221393314424138E-08
  |   2         -0.139033617199016E-08         -0.268308464679969E-09          0.221393314424138E-08

  Removing unitary transformations (pure translations, rotations) from forces on atoms.
  Atomic forces before filtering:
  | Net force on center of mass :  -0.664615E-24  0.166154E-24  0.000000E+00 eV/A
  Atomic forces after filtering:
  | Net force on center of mass :  -0.332307E-24  0.000000E+00  0.000000E+00 eV/A
 ------------------------------------------------------------------------
 Atomic structure that was used in the preceding time step of the wrapper
                         x [A]             y [A]             z [A]
  lattice_vector         0.00000000        2.80000000        2.80000000
  lattice_vector         2.80000000        0.00000000        2.80000000
  lattice_vector         2.80000000        2.80000000        0.00000000

            atom         0.00000000        0.00000000        0.00000000  Si
            atom         1.40000000        1.40000000        1.40000000  Si
 ------------------------------------------------------------------------
  @ DRIVER MODE: Message from server: STATUS      
  @ DRIVER MODE: Message from server: GETFORCE    
  @ DRIVER MODE: Returning v,forces,stress 
  @ DRIVER MODE: Message from server: STATUS      
  @ DRIVER MODE: Message from server: INIT        
  @ DRIVER MODE: Receiving replica           0
  @ DRIVER MODE: Message from server: STATUS      
  @ DRIVER MODE: Message from server: POSDATA     
  @ DRIVER MODE: Received positions 

------------------------------------------------------------
          Begin self-consistency loop: Re-initialization.

  Date     :  20181124, Time     :  145108.266
------------------------------------------------------------

  Initializing index lists of integration centers etc. from given atomic structure:
  Mapping all atomic coordinates to central unit cell.

  Initializing the k-points
          Using symmetry for reducing the k-points
  | k-points reduced from:       64 to       36
  | Number of k-points                             :        36
  The eigenvectors in the calculations are COMPLEX.
  | K-points in task   0:         9
  | K-points in task   1:         9
  | K-points in task   2:         9
  | K-points in task   3:         9
  | Number of basis functions in the Hamiltonian integrals :      1472
  | Number of basis functions in a single unit cell        :        36
  | Number of centers in hartree potential         :       810
  | Number of centers in hartree multipole         :       324
  | Number of centers in electron density summation:       228
  | Number of centers in basis integrals           :       228
  | Number of centers in integrals                 :       101
  | Number of centers in hamiltonian               :       228
  | Consuming         79 KiB for k_phase.
  | Number of super-cells (origin) [n_cells]                     :        2197
  | Number of super-cells (after PM_index) [n_cells]             :         142
  | Number of super-cells in hamiltonian [n_cells_in_hamiltonian]:         142
  | Size of matrix packed + index [n_hamiltonian_matrix_size] :       44991
  Partitioning the integration grid into batches with parallel hashing+maxmin method.
  Initializing partition tables, free-atom densities, potentials, etc. across the integration grid (initialize_grid_storage).
  | Species        1: outer_partition_radius set to              5.000694715736543 AA .
  | The sparse table of interatomic distances needs        297.41 kbyte instead of       415.87 kbyte of memory.
  | Net number of integration points:    11208
  | of which are non-zero points    :     9628
  Renormalizing the initial density to the exact electron count on the 3D integration grid.
  | Initial density: Formal number of electrons (from input files) :      28.0000000000
  | Integrated number of electrons on 3D grid     :      28.0056734177
  | Charge integration error                      :       0.0056734177
  | Normalization factor for density and gradient :       0.9997974190
  Calculating total energy contributions from superposition of free atom densities.
  Initialize hartree_potential_storage
  Max. number of atoms included in rho_multipole:            2
  Integrating overlap matrix.
  Time summed over all CPUs for integration: real work        0.409 s, elapsed        0.440 s
  Orthonormalizing eigenvectors

  End scf reinitialization - timings           :  max(cpu_time)    wall_clock(cpu1)
  | Time for scf. reinitialization             :        0.288 s           0.288 s
  | Boundary condition initialization          :        0.056 s           0.056 s
  | Integration                                :        0.110 s           0.111 s
  | Grid partitioning                          :        0.031 s           0.032 s
  | Preloading free-atom quantities on grid    :        0.076 s           0.075 s
  | Free-atom superposition energy             :        0.013 s           0.013 s
  | K.-S. eigenvector reorthonormalization     :        0.001 s           0.001 s
------------------------------------------------------------
Convergence:    q app. |  density  | eigen (eV) | Etot (eV) | forces (eV/A) |       CPU time |     Clock time
  SCF    1 :  0.57E-02 |  0.10E+00 |  -0.89E+04 | -0.16E+05 |             . |        0.492 s |        0.492 s
  SCF    2 :  0.59E-02 |  0.84E-02 |  -0.25E+00 |  0.28E-03 |             . |        0.544 s |        0.544 s
  SCF    3 :  0.63E-02 |  0.67E-02 |  -0.99E+00 |  0.72E-03 |             . |        0.529 s |        0.529 s
  SCF    4 :  0.57E-02 |  0.60E-03 |  -0.23E+00 |  0.28E-03 |             . |        0.601 s |        0.602 s
  SCF    5 :  0.57E-02 |  0.11E-03 |   0.17E-01 |  0.64E-05 |             . |        0.551 s |        0.551 s
  SCF    6 :  0.58E-02 |  0.14E-04 |   0.51E-02 | -0.35E-05 |             . |        0.697 s |        0.697 s
  SCF    7 :  0.58E-02 |  0.63E-05 |  -0.32E-02 |  0.13E-05 |             . |        0.781 s |        0.783 s
  SCF    8 :  0.58E-02 |  0.39E-06 |   0.69E-04 | -0.78E-07 |             . |        0.785 s |        0.785 s
  SCF    9 :  0.58E-02 |  0.57E-08 |   0.53E-06 | -0.34E-09 |      0.73E-08 |        1.534 s |        1.534 s
  SCF   10 :  0.58E-02
  Analytical stress tensor components [eV]         xx                  yy                  zz                  xy                  xz                  yz
  -----------------------------------------------------------------------------------------------------------------------------------------------------------
    Nuclear Hellmann-Feynman      :    -0.2157826408E+02   -0.2157844339E+02   -0.2157844340E+02    0.9649431683E-08   -0.1503676592E-08   -0.6794092368E-08
    Multipole Hellmann-Feynman    :    -0.4497571954E+02   -0.4497572774E+02   -0.4497572774E+02    0.3077488933E-07   -0.4509241482E-08   -0.2103517267E-07
    On-site Multipole corrections :    -0.2654755210E+00   -0.2654755209E+00   -0.2654755208E+00    0.9667425793E-13   -0.3141913383E-11   -0.3480273286E-11
    Strain deriv. of the orbitals :     0.6496813971E+02    0.6496833450E+02    0.6496833450E+02   -0.3562992614E-07    0.5403510973E-08    0.2330429662E-07
    On-site kinetic E corrections :     0.2933536906E+00    0.2933536926E+00    0.2933536926E+00    0.2414439592E-10    0.4060318833E-10   -0.1102086540E-10
  -----------------------------------------------------------------------------------------------------------------------------------------------------------
  Sum of all contributions        :    -0.1557965738E+01   -0.1557958464E+01   -0.1557958463E+01    0.4818635938E-08   -0.5719458263E-09   -0.4539469562E-08

  +-------------------------------------------------------------------+
  |              Analytical stress tensor - Symmetrized               |
  |                  Cartesian components [eV/A**3]                   |
  +-------------------------------------------------------------------+
  |                x                y                z                |
  |                                                                   |
  |  x        -0.04140035       0.00000000      -0.00000000           |
  |  y         0.00000000      -0.04140016      -0.00000000           |
  |  z        -0.00000000      -0.00000000      -0.04140016           |
  |                                                                   |
  |  Pressure:       0.04140023   [eV/A**3]                           |
  |                                                                   |
  +-------------------------------------------------------------------+

 |  0.31E-08 |   0.12E-05 | -0.15E-08 |      0.39E-09 |        6.036 s |        6.047 s

  Total energy components:
  | Sum of eigenvalues            :        -326.29196451 Ha       -8878.85610547 eV
  | XC energy correction          :         -39.63672020 Ha       -1078.57003355 eV
  | XC potential correction       :          52.36496669 Ha        1424.92324289 eV
  | Free-atom electrostatic energy:        -262.54397060 Ha       -7144.18493204 eV
  | Hartree energy correction     :          -0.70566317 Ha         -19.20207183 eV
  | Entropy correction            :          -0.00000000 Ha          -0.00000000 eV
  | ---------------------------
  | Total energy                  :        -576.81335178 Ha      -15695.88990000 eV
  | Total energy, T -> 0          :        -576.81335178 Ha      -15695.88990000 eV  <-- do not rely on this value for anything but (periodic) metals
  | Electronic free energy        :        -576.81335178 Ha      -15695.88990000 eV

  Derived energy quantities:
  | Kinetic energy                :         575.60415000 Ha       15662.98584537 eV
  | Electrostatic energy          :       -1112.78078158 Ha      -30280.30571181 eV
  | Energy correction for multipole
  | error in Hartree potential    :           0.01734437 Ha           0.47196435 eV
  | Sum of eigenvalues per atom                           :       -4439.42805273 eV
  | Total energy (T->0) per atom                          :       -7847.94495000 eV  <-- do not rely on this value for anything but (periodic) metals
  | Electronic free energy per atom                       :       -7847.94495000 eV
  What follows are estimated values for band gap, HOMO, LUMO, etc.
  | They are estimated on a discrete k-point grid and not necessarily exact.
  | For converged numbers, create a DOS and/or band structure plot on a denser k-grid.

  Highest occupied state (VBM) at     -5.92861498 eV (relative to internal zero)
  | Occupation number:      2.00000000
  | K-point:       1 at    0.000000    0.000000    0.000000 (in units of recip. lattice)

  Lowest unoccupied state (CBM) at    -5.40386177 eV (relative to internal zero)
  | Occupation number:      0.00000000
  | K-point:      29 at    0.500000    0.500000    0.000000 (in units of recip. lattice)

  ESTIMATED overall HOMO-LUMO gap:      0.52475321 eV between HOMO at k-point 1 and LUMO at k-point 29
  | This appears to be an indirect band gap.
  | Smallest direct gap :      2.58644219 eV for k_point 1 at    0.500000    0.500000    0.000000 (in units of recip. lattice)
  The gap value is above 0.2 eV. Unless you are using a very sparse k-point grid,
  this system is most likely an insulator or a semiconductor.

  Self-consistency cycle converged.

  Removing unitary transformations (pure translations, rotations) from forces on atoms.
  Atomic forces before filtering:
  | Net force on center of mass :  -0.115046E-08  0.339535E-08 -0.543252E-08 eV/A
  Atomic forces after filtering:
  | Net force on center of mass :   0.000000E+00  0.332307E-24  0.000000E+00 eV/A

  Energy and forces in a compact form:
  | Total energy uncorrected      :         -0.156958898999952E+05 eV
  | Total energy corrected        :         -0.156958898999952E+05 eV  <-- do not rely on this value for anything but (periodic) metals
  | Electronic free energy        :         -0.156958898999952E+05 eV
  Total atomic forces (unitary forces cleaned) [eV/Ang]:
  |   1         -0.539740961559890E-08         -0.146233546649084E-08          0.615729454060117E-08
  |   2          0.539740961559890E-08          0.146233546649084E-08         -0.615729454060117E-08

  Removing unitary transformations (pure translations, rotations) from forces on atoms.
  Atomic forces before filtering:
  | Net force on center of mass :   0.000000E+00  0.332307E-24  0.000000E+00 eV/A
  Atomic forces after filtering:
  | Net force on center of mass :   0.000000E+00  0.000000E+00  0.000000E+00 eV/A
 ------------------------------------------------------------------------
 Atomic structure that was used in the preceding time step of the wrapper
                         x [A]             y [A]             z [A]
  lattice_vector        -0.00000000        2.65975282        2.65975282
  lattice_vector         2.65975287       -0.00000000        2.65975282
  lattice_vector         2.65975287        2.65975282       -0.00000000

            atom         0.00000000        0.00000000       -0.00000000  Si
            atom         1.32987644        1.32987641        1.32987641  Si
 ------------------------------------------------------------------------
  @ DRIVER MODE: Message from server: STATUS      
  @ DRIVER MODE: Message from server: GETFORCE    
  @ DRIVER MODE: Returning v,forces,stress 
  @ DRIVER MODE: Message from server: STATUS      
  @ DRIVER MODE: Message from server: INIT        
  @ DRIVER MODE: Receiving replica           0
  @ DRIVER MODE: Message from server: STATUS      
  @ DRIVER MODE: Message from server: POSDATA     
  @ DRIVER MODE: Received positions 

------------------------------------------------------------
          Begin self-consistency loop: Re-initialization.

  Date     :  20181124, Time     :  145121.254
------------------------------------------------------------

  Initializing index lists of integration centers etc. from given atomic structure:
  Mapping all atomic coordinates to central unit cell.

  Initializing the k-points
          Using symmetry for reducing the k-points
  | k-points reduced from:       64 to       36
  | Number of k-points                             :        36
  The eigenvectors in the calculations are COMPLEX.
  | K-points in task   0:         9
  | K-points in task   1:         9
  | K-points in task   2:         9
  | K-points in task   3:         9
  | Number of basis functions in the Hamiltonian integrals :      1454
  | Number of basis functions in a single unit cell        :        36
  | Number of centers in hartree potential         :       780
  | Number of centers in hartree multipole         :       318
  | Number of centers in electron density summation:       198
  | Number of centers in basis integrals           :       228
  | Number of centers in integrals                 :       101
  | Number of centers in hamiltonian               :       198
  | Consuming         63 KiB for k_phase.
  | Number of super-cells (origin) [n_cells]                     :        2197
  | Number of super-cells (after PM_index) [n_cells]             :         112
  | Number of super-cells in hamiltonian [n_cells_in_hamiltonian]:         112
  | Size of matrix packed + index [n_hamiltonian_matrix_size] :       43047
  Partitioning the integration grid into batches with parallel hashing+maxmin method.
  Initializing partition tables, free-atom densities, potentials, etc. across the integration grid (initialize_grid_storage).
  | Species        1: outer_partition_radius set to              5.000694715736543 AA .
  | The sparse table of interatomic distances needs        255.65 kbyte instead of       415.87 kbyte of memory.
  | Net number of integration points:    11208
  | of which are non-zero points    :     9820
  Renormalizing the initial density to the exact electron count on the 3D integration grid.
  | Initial density: Formal number of electrons (from input files) :      28.0000000000
  | Integrated number of electrons on 3D grid     :      28.0049972218
  | Charge integration error                      :       0.0049972218
  | Normalization factor for density and gradient :       0.9998215596
  Calculating total energy contributions from superposition of free atom densities.
  Initialize hartree_potential_storage
  Max. number of atoms included in rho_multipole:            2
  Integrating overlap matrix.
  Time summed over all CPUs for integration: real work        0.408 s, elapsed        0.537 s
  Orthonormalizing eigenvectors

  End scf reinitialization - timings           :  max(cpu_time)    wall_clock(cpu1)
  | Time for scf. reinitialization             :        0.359 s           0.359 s
  | Boundary condition initialization          :        0.077 s           0.077 s
  | Integration                                :        0.135 s           0.135 s
  | Grid partitioning                          :        0.018 s           0.018 s
  | Preloading free-atom quantities on grid    :        0.114 s           0.115 s
  | Free-atom superposition energy             :        0.013 s           0.013 s
  | K.-S. eigenvector reorthonormalization     :        0.001 s           0.001 s
------------------------------------------------------------
Convergence:    q app. |  density  | eigen (eV) | Etot (eV) | forces (eV/A) |       CPU time |     Clock time
  SCF    1 :  0.51E-02 |  0.10E+00 |  -0.89E+04 | -0.16E+05 |             . |        0.688 s |        0.688 s
  SCF    2 :  0.49E-02 |  0.39E-02 |   0.84E-01 |  0.35E-04 |             . |        0.793 s |        0.795 s
  SCF    3 :  0.45E-02 |  0.31E-02 |   0.35E+00 |  0.51E-07 |             . |        0.708 s |        0.707 s
  SCF    4 :  0.51E-02 |  0.26E-03 |   0.11E+00 | -0.99E-04 |             . |        0.666 s |        0.666 s
  SCF    5 :  0.51E-02 |  0.59E-04 |  -0.12E-01 | -0.63E-05 |             . |        0.645 s |        0.646 s
  SCF    6 :  0.51E-02 |  0.62E-05 |   0.74E-03 | -0.32E-06 |             . |        0.739 s |        0.741 s
  SCF    7 :  0.51E-02 |  0.48E-05 |   0.25E-02 | -0.14E-05 |             . |        0.655 s |        0.654 s
  SCF    8 :  0.51E-02 |  0.18E-06 |  -0.60E-04 |  0.27E-07 |             . |        0.583 s |        0.582 s
  SCF    9 :  0.51E-02 |  0.11E-07 |  -0.39E-05 |  0.21E-08 |      0.11E-07 |        1.199 s |        1.199 s
  SCF   10 :  0.51E-02
  Analytical stress tensor components [eV]         xx                  yy                  zz                  xy                  xz                  yz
  -----------------------------------------------------------------------------------------------------------------------------------------------------------
    Nuclear Hellmann-Feynman      :    -0.1740159779E+02   -0.1740180296E+02   -0.1740180299E+02    0.4717168607E-08   -0.7254005397E-09   -0.3287361928E-08
    Multipole Hellmann-Feynman    :    -0.3906344778E+02   -0.3906346246E+02   -0.3906346243E+02    0.1550049807E-07   -0.2257988428E-08   -0.1056310061E-07
    On-site Multipole corrections :    -0.2654792759E+00   -0.2654792759E+00   -0.2654792759E+00   -0.7057220829E-11    0.2416856448E-11   -0.3141913383E-11
    Strain deriv. of the orbitals :     0.5665599613E+02    0.5665620633E+02    0.5665620632E+02   -0.1806261835E-07    0.2605467926E-08    0.1258950191E-07
    On-site kinetic E corrections :     0.2935250236E+00    0.2935250241E+00    0.2935250241E+00    0.9860774309E-11    0.1208428224E-10   -0.5317084186E-12
  -----------------------------------------------------------------------------------------------------------------------------------------------------------
  Sum of all contributions        :     0.2189963047E+00    0.2189866557E+00    0.2189866567E+00    0.2157851874E-08   -0.3634199034E-09   -0.1264634242E-08

  +-------------------------------------------------------------------+
  |              Analytical stress tensor - Symmetrized               |
  |                  Cartesian components [eV/A**3]                   |
  +-------------------------------------------------------------------+
  |                x                y                z                |
  |                                                                   |
  |  x         0.00542401       0.00000000      -0.00000000           |
  |  y         0.00000000       0.00542377      -0.00000000           |
  |  z        -0.00000000      -0.00000000       0.00542377           |
  |                                                                   |
  |  Pressure:      -0.00542385   [eV/A**3]                           |
  |                                                                   |
  +-------------------------------------------------------------------+

 * Warning: Stress tensor is anisotropic. Be aware that pressure is an isotropic quantity.

 |  0.24E-08 |  -0.13E-05 |  0.76E-09 |      0.26E-09 |        4.344 s |        4.345 s

  Total energy components:
  | Sum of eigenvalues            :        -326.22669799 Ha       -8877.08011307 eV
  | XC energy correction          :         -39.58699649 Ha       -1077.21698268 eV
  | XC potential correction       :          52.29954441 Ha        1423.14301219 eV
  | Free-atom electrostatic energy:        -262.73584656 Ha       -7149.40614260 eV
  | Hartree energy correction     :          -0.56499590 Ha         -15.37432057 eV
  | Entropy correction            :           0.00000000 Ha           0.00000000 eV
  | ---------------------------
  | Total energy                  :        -576.81499252 Ha      -15695.93454673 eV
  | Total energy, T -> 0          :        -576.81499252 Ha      -15695.93454673 eV  <-- do not rely on this value for anything but (periodic) metals
  | Electronic free energy        :        -576.81499252 Ha      -15695.93454673 eV

  Derived energy quantities:
  | Kinetic energy                :         575.39267555 Ha       15657.23133287 eV
  | Electrostatic energy          :       -1112.62067158 Ha      -30275.94889692 eV
  | Energy correction for multipole
  | error in Hartree potential    :           0.01506362 Ha           0.40990200 eV
  | Sum of eigenvalues per atom                           :       -4438.54005654 eV
  | Total energy (T->0) per atom                          :       -7847.96727336 eV  <-- do not rely on this value for anything but (periodic) metals
  | Electronic free energy per atom                       :       -7847.96727336 eV
  What follows are estimated values for band gap, HOMO, LUMO, etc.
  | They are estimated on a discrete k-point grid and not necessarily exact.
  | For converged numbers, create a DOS and/or band structure plot on a denser k-grid.

  Highest occupied state (VBM) at     -5.82253606 eV (relative to internal zero)
  | Occupation number:      2.00000000
  | K-point:       1 at    0.000000    0.000000    0.000000 (in units of recip. lattice)

  Lowest unoccupied state (CBM) at    -5.15735875 eV (relative to internal zero)
  | Occupation number:      0.00000000
  | K-point:      29 at    0.500000    0.500000    0.000000 (in units of recip. lattice)

  ESTIMATED overall HOMO-LUMO gap:      0.66517732 eV between HOMO at k-point 1 and LUMO at k-point 29
  | This appears to be an indirect band gap.
  | Smallest direct gap :      2.54950401 eV for k_point 1 at    0.500000    0.500000    0.000000 (in units of recip. lattice)
  The gap value is above 0.2 eV. Unless you are using a very sparse k-point grid,
  this system is most likely an insulator or a semiconductor.

  Self-consistency cycle converged.

  Removing unitary transformations (pure translations, rotations) from forces on atoms.
  Atomic forces before filtering:
  | Net force on center of mass :   0.300061E-08 -0.168513E-08  0.922105E-09 eV/A
  Atomic forces after filtering:
  | Net force on center of mass :   0.664615E-24  0.000000E+00  0.664615E-24 eV/A

  Energy and forces in a compact form:
  | Total energy uncorrected      :         -0.156959345467289E+05 eV
  | Total energy corrected        :         -0.156959345467289E+05 eV  <-- do not rely on this value for anything but (periodic) metals
  | Electronic free energy        :         -0.156959345467289E+05 eV
  Total atomic forces (unitary forces cleaned) [eV/Ang]:
  |   1         -0.818712551439296E-09         -0.229773948637432E-08          0.233497744416640E-08
  |   2          0.818712551439297E-09          0.229773948637432E-08         -0.233497744416639E-08

  Removing unitary transformations (pure translations, rotations) from forces on atoms.
  Atomic forces before filtering:
  | Net force on center of mass :   0.664615E-24  0.000000E+00  0.664615E-24 eV/A
  Atomic forces after filtering:
  | Net force on center of mass :   0.000000E+00  0.000000E+00  0.000000E+00 eV/A
 ------------------------------------------------------------------------
 Atomic structure that was used in the preceding time step of the wrapper
                         x [A]             y [A]             z [A]
  lattice_vector        -0.00000000        2.72288223        2.72288223
  lattice_vector         2.72288226       -0.00000000        2.72288223
  lattice_vector         2.72288226        2.72288223       -0.00000000

            atom         0.00000000        0.00000000       -0.00000000  Si
            atom         1.36144113        1.36144111        1.36144111  Si
 ------------------------------------------------------------------------
  @ DRIVER MODE: Message from server: STATUS      
  @ DRIVER MODE: Message from server: GETFORCE    
  @ DRIVER MODE: Returning v,forces,stress 
  @ DRIVER MODE: Message from server: STATUS      
  @ DRIVER MODE: Message from server: INIT        
  @ DRIVER MODE: Receiving replica           0
  @ DRIVER MODE: Message from server: STATUS      
  @ DRIVER MODE: Message from server: POSDATA     
  @ DRIVER MODE: Received positions 

------------------------------------------------------------
          Begin self-consistency loop: Re-initialization.

  Date     :  20181124, Time     :  145132.774
------------------------------------------------------------

  Initializing index lists of integration centers etc. from given atomic structure:
  Mapping all atomic coordinates to central unit cell.

  Initializing the k-points
          Using symmetry for reducing the k-points
  | k-points reduced from:       64 to       36
  | Number of k-points                             :        36
  The eigenvectors in the calculations are COMPLEX.
  | K-points in task   0:         9
  | K-points in task   1:         9
  | K-points in task   2:         9
  | K-points in task   3:         9
  | Number of basis functions in the Hamiltonian integrals :      1472
  | Number of basis functions in a single unit cell        :        36
  | Number of centers in hartree potential         :       780
  | Number of centers in hartree multipole         :       318
  | Number of centers in electron density summation:       198
  | Number of centers in basis integrals           :       228
  | Number of centers in integrals                 :       101
  | Number of centers in hamiltonian               :       198
  | Consuming         63 KiB for k_phase.
  | Number of super-cells (origin) [n_cells]                     :        2197
  | Number of super-cells (after PM_index) [n_cells]             :         112
  | Number of super-cells in hamiltonian [n_cells_in_hamiltonian]:         112
  | Size of matrix packed + index [n_hamiltonian_matrix_size] :       43287
  Partitioning the integration grid into batches with parallel hashing+maxmin method.
  Initializing partition tables, free-atom densities, potentials, etc. across the integration grid (initialize_grid_storage).
  | Species        1: outer_partition_radius set to              5.000694715736543 AA .
  | The sparse table of interatomic distances needs        255.65 kbyte instead of       415.87 kbyte of memory.
  | Net number of integration points:    11208
  | of which are non-zero points    :     9772
  Renormalizing the initial density to the exact electron count on the 3D integration grid.
  | Initial density: Formal number of electrons (from input files) :      28.0000000000
  | Integrated number of electrons on 3D grid     :      28.0051122323
  | Charge integration error                      :       0.0051122323
  | Normalization factor for density and gradient :       0.9998174536
  Calculating total energy contributions from superposition of free atom densities.
  Initialize hartree_potential_storage
  Max. number of atoms included in rho_multipole:            2
  Integrating overlap matrix.
  Time summed over all CPUs for integration: real work        0.392 s, elapsed        0.427 s
  Orthonormalizing eigenvectors

  End scf reinitialization - timings           :  max(cpu_time)    wall_clock(cpu1)
  | Time for scf. reinitialization             :        0.264 s           0.264 s
  | Boundary condition initialization          :        0.059 s           0.060 s
  | Integration                                :        0.107 s           0.107 s
  | Grid partitioning                          :        0.019 s           0.018 s
  | Preloading free-atom quantities on grid    :        0.069 s           0.070 s
  | Free-atom superposition energy             :        0.008 s           0.008 s
  | K.-S. eigenvector reorthonormalization     :        0.001 s           0.001 s
------------------------------------------------------------
Convergence:    q app. |  density  | eigen (eV) | Etot (eV) | forces (eV/A) |       CPU time |     Clock time
  SCF    1 :  0.52E-02 |  0.10E+00 |  -0.89E+04 | -0.16E+05 |             . |        0.462 s |        0.461 s
  SCF    2 :  0.52E-02 |  0.60E-03 |  -0.14E-01 |  0.63E-05 |             . |        0.508 s |        0.508 s
  SCF    3 :  0.53E-02 |  0.47E-03 |  -0.60E-01 |  0.25E-04 |             . |        0.493 s |        0.493 s
  SCF    4 :  0.52E-02 |  0.39E-04 |  -0.18E-01 |  0.13E-04 |             . |        0.479 s |        0.479 s
  SCF    5 :  0.52E-02 |  0.99E-05 |   0.75E-03 |  0.21E-06 |             . |        0.497 s |        0.497 s
  SCF    6 :  0.52E-02 |  0.38E-06 |   0.11E-03 | -0.79E-07 |             . |        0.490 s |        0.490 s
  SCF    7 :  0.52E-02 |  0.24E-06 |  -0.11E-03 |  0.61E-07 |      0.12E-07 |        1.058 s |        1.057 s
  SCF    8 :  0.52E-02
  Analytical stress tensor components [eV]         xx                  yy                  zz                  xy                  xz                  yz
  -----------------------------------------------------------------------------------------------------------------------------------------------------------
    Nuclear Hellmann-Feynman      :    -0.1800679512E+02   -0.1800700688E+02   -0.1800700688E+02   -0.8375780122E-08    0.9818240656E-08    0.2010242001E-08
    Multipole Hellmann-Feynman    :    -0.3992434931E+02   -0.3992438145E+02   -0.3992438144E+02   -0.2548427891E-07    0.3182114002E-07    0.5722367816E-08
    On-site Multipole corrections :    -0.2654330973E+00   -0.2654330944E+00   -0.2654330944E+00    0.4640364381E-11   -0.3649453237E-11    0.2001157139E-10
    Strain deriv. of the orbitals :     0.5786643670E+02    0.5786667498E+02    0.5786667497E+02    0.2883387082E-07   -0.3752759349E-07   -0.6145969274E-08
    On-site kinetic E corrections :     0.2935497321E+00    0.2935497196E+00    0.2935497196E+00   -0.4592027252E-11    0.2206589937E-10   -0.8313986182E-11
  -----------------------------------------------------------------------------------------------------------------------------------------------------------
  Sum of all contributions        :    -0.3659109511E-01   -0.3659673152E-01   -0.3659673065E-01   -0.5026139875E-08    0.4130203634E-08    0.1598338128E-08

  +-------------------------------------------------------------------+
  |              Analytical stress tensor - Symmetrized               |
  |                  Cartesian components [eV/A**3]                   |
  +-------------------------------------------------------------------+
  |                x                y                z                |
  |                                                                   |
  |  x        -0.00091609      -0.00000000       0.00000000           |
  |  y        -0.00000000      -0.00091623       0.00000000           |
  |  z         0.00000000       0.00000000      -0.00091623           |
  |                                                                   |
  |  Pressure:       0.00091619   [eV/A**3]                           |
  |                                                                   |
  +-------------------------------------------------------------------+

 * Warning: Stress tensor is anisotropic. Be aware that pressure is an isotropic quantity.

 |  0.27E-07 |   0.36E-04 | -0.13E-07 |      0.26E-08 |        4.281 s |        4.283 s

  Total energy components:
  | Sum of eigenvalues            :        -326.23551057 Ha       -8877.31991556 eV
  | XC energy correction          :         -39.59441271 Ha       -1077.41878832 eV
  | XC potential correction       :          52.30930075 Ha        1423.40849561 eV
  | Free-atom electrostatic energy:        -262.70814429 Ha       -7148.65232558 eV
  | Hartree energy correction     :          -0.58626768 Ha         -15.95315529 eV
  | Entropy correction            :           0.00000000 Ha           0.00000000 eV
  | ---------------------------
  | Total energy                  :        -576.81503450 Ha      -15695.93568913 eV
  | Total energy, T -> 0          :        -576.81503450 Ha      -15695.93568913 eV  <-- do not rely on this value for anything but (periodic) metals
  | Electronic free energy        :        -576.81503450 Ha      -15695.93568913 eV

  Derived energy quantities:
  | Kinetic energy                :         575.42320966 Ha       15658.06220824 eV
  | Electrostatic energy          :       -1112.64383145 Ha      -30276.57910904 eV
  | Energy correction for multipole
  | error in Hartree potential    :           0.01540941 Ha           0.41931140 eV
  | Sum of eigenvalues per atom                           :       -4438.65995778 eV
  | Total energy (T->0) per atom                          :       -7847.96784457 eV  <-- do not rely on this value for anything but (periodic) metals
  | Electronic free energy per atom                       :       -7847.96784457 eV
  What follows are estimated values for band gap, HOMO, LUMO, etc.
  | They are estimated on a discrete k-point grid and not necessarily exact.
  | For converged numbers, create a DOS and/or band structure plot on a denser k-grid.

  Highest occupied state (VBM) at     -5.83797782 eV (relative to internal zero)
  | Occupation number:      2.00000000
  | K-point:       1 at    0.000000    0.000000    0.000000 (in units of recip. lattice)

  Lowest unoccupied state (CBM) at    -5.19287648 eV (relative to internal zero)
  | Occupation number:      0.00000000
  | K-point:       9 at    0.000000    0.500000    0.500000 (in units of recip. lattice)

  ESTIMATED overall HOMO-LUMO gap:      0.64510134 eV between HOMO at k-point 1 and LUMO at k-point 9
  | This appears to be an indirect band gap.
  | Smallest direct gap :      2.55594425 eV for k_point 1 at    0.000000    0.500000    0.500000 (in units of recip. lattice)
  The gap value is above 0.2 eV. Unless you are using a very sparse k-point grid,
  this system is most likely an insulator or a semiconductor.

  Self-consistency cycle converged.

  Removing unitary transformations (pure translations, rotations) from forces on atoms.
  Atomic forces before filtering:
  | Net force on center of mass :   0.568550E-09 -0.309092E-08  0.712912E-08 eV/A
  Atomic forces after filtering:
  | Net force on center of mass :   0.000000E+00  0.000000E+00  0.132923E-23 eV/A

  Energy and forces in a compact form:
  | Total energy uncorrected      :         -0.156959356891315E+05 eV
  | Total energy corrected        :         -0.156959356891315E+05 eV  <-- do not rely on this value for anything but (periodic) metals
  | Electronic free energy        :         -0.156959356891315E+05 eV
  Total atomic forces (unitary forces cleaned) [eV/Ang]:
  |   1         -0.166114033773786E-08          0.571653621538750E-08         -0.398624301078845E-08
  |   2          0.166114033773786E-08         -0.571653621538750E-08          0.398624301078845E-08

  Removing unitary transformations (pure translations, rotations) from forces on atoms.
  Atomic forces before filtering:
  | Net force on center of mass :   0.000000E+00  0.000000E+00  0.132923E-23 eV/A
  Atomic forces after filtering:
  | Net force on center of mass :   0.000000E+00  0.000000E+00  0.000000E+00 eV/A
 ------------------------------------------------------------------------
 Atomic structure that was used in the preceding time step of the wrapper
                         x [A]             y [A]             z [A]
  lattice_vector        -0.00000000        2.71311702        2.71311702
  lattice_vector         2.71311627       -0.00000000        2.71311702
  lattice_vector         2.71311627        2.71311702        0.00000000

            atom        -0.00000000       -0.00000000        0.00000000  Si
            atom         1.35655813        1.35655851        1.35655851  Si
 ------------------------------------------------------------------------
  @ DRIVER MODE: Message from server: STATUS      
  @ DRIVER MODE: Message from server: GETFORCE    
  @ DRIVER MODE: Returning v,forces,stress 
  @ DRIVER MODE: Message from server: STATUS      
  @ DRIVER MODE: Message from server: INIT        
  @ DRIVER MODE: Receiving replica           0
[...]
  this system is most likely an insulator or a semiconductor.

  Self-consistency cycle converged.

  Removing unitary transformations (pure translations, rotations) from forces on atoms.
  Atomic forces before filtering:
  | Net force on center of mass :  -0.134955E-08  0.574209E-09  0.581552E-08 eV/A
  Atomic forces after filtering:
  | Net force on center of mass :   0.000000E+00  0.000000E+00  0.000000E+00 eV/A

  Energy and forces in a compact form:
  | Total energy uncorrected      :         -0.156959356946099E+05 eV
  | Total energy corrected        :         -0.156959356946099E+05 eV  <-- do not rely on this value for anything but (periodic) metals
  | Electronic free energy        :         -0.156959356946099E+05 eV
  Total atomic forces (unitary forces cleaned) [eV/Ang]:
  |   1          0.334100684307922E-08         -0.732539273490107E-08          0.688004750477119E-08
  |   2         -0.334100684307922E-08          0.732539273490107E-08         -0.688004750477119E-08

  Removing unitary transformations (pure translations, rotations) from forces on atoms.
  Atomic forces before filtering:
  | Net force on center of mass :   0.000000E+00  0.000000E+00  0.000000E+00 eV/A
  Atomic forces after filtering:
  | Net force on center of mass :   0.000000E+00  0.000000E+00  0.000000E+00 eV/A
 ------------------------------------------------------------------------
 Atomic structure that was used in the preceding time step of the wrapper
                         x [A]             y [A]             z [A]
  lattice_vector        -0.00000000        2.71450029        2.71450029
  lattice_vector         2.71449920        0.00000000        2.71450029
  lattice_vector         2.71449920        2.71450029       -0.00000000

            atom        -0.00000000        0.00000000       -0.00000000  Si
            atom         1.35724960        1.35725014        1.35725014  Si
 ------------------------------------------------------------------------
  @ DRIVER MODE: Message from server: STATUS      
  @ DRIVER MODE: Message from server: GETFORCE    
  @ DRIVER MODE: Returning v,forces,stress 
  @ DRIVER MODE: Message from server: STATUS      
  @ DRIVER MODE: Message from server: INIT        
  @ DRIVER MODE: Receiving replica           0
  @ DRIVER MODE: Message from server: STATUS      
  @ DRIVER MODE: Message from server: POSDATA     
  @ DRIVER MODE: Received positions 

------------------------------------------------------------
          Begin self-consistency loop: Re-initialization.

  Date     :  20181124, Time     :  145207.150
------------------------------------------------------------

  Initializing index lists of integration centers etc. from given atomic structure:
  Mapping all atomic coordinates to central unit cell.

  Initializing the k-points
          Using symmetry for reducing the k-points
  | k-points reduced from:       64 to       36
  | Number of k-points                             :        36
  The eigenvectors in the calculations are COMPLEX.
  | K-points in task   0:         9
  | K-points in task   1:         9
  | K-points in task   2:         9
  | K-points in task   3:         9
  | Number of basis functions in the Hamiltonian integrals :      1472
  | Number of basis functions in a single unit cell        :        36
  | Number of centers in hartree potential         :       780
  | Number of centers in hartree multipole         :       318
  | Number of centers in electron density summation:       198
  | Number of centers in basis integrals           :       228
  | Number of centers in integrals                 :       101
  | Number of centers in hamiltonian               :       198
  | Consuming         63 KiB for k_phase.
  | Number of super-cells (origin) [n_cells]                     :        2197
  | Number of super-cells (after PM_index) [n_cells]             :         112
  | Number of super-cells in hamiltonian [n_cells_in_hamiltonian]:         112
  | Size of matrix packed + index [n_hamiltonian_matrix_size] :       43287
  Partitioning the integration grid into batches with parallel hashing+maxmin method.
  Initializing partition tables, free-atom densities, potentials, etc. across the integration grid (initialize_grid_storage).
  | Species        1: outer_partition_radius set to              5.000694715736543 AA .
  | The sparse table of interatomic distances needs        255.65 kbyte instead of       415.87 kbyte of memory.
  | Net number of integration points:    11208
  | of which are non-zero points    :     9786
  Renormalizing the initial density to the exact electron count on the 3D integration grid.
  | Initial density: Formal number of electrons (from input files) :      28.0000000000
  | Integrated number of electrons on 3D grid     :      28.0051033568
  | Charge integration error                      :       0.0051033568
  | Normalization factor for density and gradient :       0.9998177705
  Calculating total energy contributions from superposition of free atom densities.
  Initialize hartree_potential_storage
  Max. number of atoms included in rho_multipole:            2
  Integrating overlap matrix.
  Time summed over all CPUs for integration: real work        0.387 s, elapsed        0.488 s
  Orthonormalizing eigenvectors

  End scf reinitialization - timings           :  max(cpu_time)    wall_clock(cpu1)
  | Time for scf. reinitialization             :        0.331 s           0.330 s
  | Boundary condition initialization          :        0.072 s           0.071 s
  | Integration                                :        0.122 s           0.122 s
  | Grid partitioning                          :        0.029 s           0.029 s
  | Preloading free-atom quantities on grid    :        0.096 s           0.097 s
  | Free-atom superposition energy             :        0.009 s           0.009 s
  | K.-S. eigenvector reorthonormalization     :        0.002 s           0.002 s
------------------------------------------------------------
Convergence:    q app. |  density  | eigen (eV) | Etot (eV) | forces (eV/A) |       CPU time |     Clock time
  SCF    1 :  0.52E-02 |  0.10E+00 |  -0.89E+04 | -0.16E+05 |             . |        0.648 s |        0.647 s
  SCF    2 :  0.52E-02 |  0.38E-04 |  -0.98E-03 |  0.36E-06 |             . |        0.740 s |        0.740 s
  SCF    3 :  0.52E-02 |  0.30E-04 |  -0.40E-02 |  0.16E-05 |             . |        0.886 s |        0.886 s
  SCF    4 :  0.52E-02 |  0.20E-05 |  -0.82E-03 |  0.63E-06 |             . |        0.758 s |        0.759 s
  SCF    5 :  0.52E-02 |  0.46E-06 |   0.96E-04 |  0.40E-07 |             . |        0.754 s |        0.754 s
  SCF    6 :  0.52E-02 |  0.83E-08 |   0.15E-05 | -0.53E-10 |      0.52E-08 |        1.712 s |        1.713 s
  SCF    7 :  0.52E-02
  Analytical stress tensor components [eV]         xx                  yy                  zz                  xy                  xz                  yz
  -----------------------------------------------------------------------------------------------------------------------------------------------------------
    Nuclear Hellmann-Feynman      :    -0.1795839131E+02   -0.1795860340E+02   -0.1795860339E+02    0.1373437792E-08   -0.2617020750E-08    0.4228611344E-08
    Multipole Hellmann-Feynman    :    -0.3985558538E+02   -0.3985562155E+02   -0.3985562154E+02    0.4748152981E-08   -0.7485276390E-08    0.1347157156E-07
    On-site Multipole corrections :    -0.2654358894E+00   -0.2654358857E+00   -0.2654358857E+00   -0.9667425793E-13    0.4495352994E-11   -0.2900227738E-12
    Strain deriv. of the orbitals :     0.5776971955E+02    0.5776996416E+02    0.5776996414E+02   -0.5481043728E-08    0.7312247521E-08   -0.1539247535E-07
    On-site kinetic E corrections :     0.2935496753E+00    0.2935496600E+00    0.2935496600E+00    0.8555671827E-11    0.2416856448E-11   -0.4350341607E-11
  -----------------------------------------------------------------------------------------------------------------------------------------------------------
  Sum of all contributions        :    -0.1614335398E-01   -0.1614700880E-01   -0.1614700813E-01    0.6490060425E-09   -0.2783137409E-08    0.2303067192E-08

  +-------------------------------------------------------------------+
  |              Analytical stress tensor - Symmetrized               |
  |                  Cartesian components [eV/A**3]                   |
  +-------------------------------------------------------------------+
  |                x                y                z                |
  |                                                                   |
  |  x        -0.00040382       0.00000000      -0.00000000           |
  |  y         0.00000000      -0.00040391       0.00000000           |
  |  z        -0.00000000       0.00000000      -0.00040391           |
  |                                                                   |
  |  Pressure:       0.00040388   [eV/A**3]                           |
  |                                                                   |
  +-------------------------------------------------------------------+

 * Warning: Stress tensor is anisotropic. Be aware that pressure is an isotropic quantity.

 |  0.12E-08 |  -0.11E-05 |  0.54E-09 |      0.23E-09 |        5.613 s |        5.615 s

  Total energy components:
  | Sum of eigenvalues            :        -326.23479658 Ha       -8877.30048715 eV
  | XC energy correction          :         -39.59382270 Ha       -1077.40273329 eV
  | XC potential correction       :          52.30852455 Ha        1423.38737414 eV
  | Free-atom electrostatic energy:        -262.71036038 Ha       -7148.71262855 eV
  | Hartree energy correction     :          -0.58457974 Ha         -15.90722415 eV
  | Entropy correction            :           0.00000000 Ha           0.00000000 eV
  | ---------------------------
  | Total energy                  :        -576.81503486 Ha      -15695.93569899 eV
  | Total energy, T -> 0          :        -576.81503486 Ha      -15695.93569899 eV  <-- do not rely on this value for anything but (periodic) metals
  | Electronic free energy        :        -576.81503486 Ha      -15695.93569899 eV

  Derived energy quantities:
  | Kinetic energy                :         575.42076843 Ha       15657.99577909 eV
  | Electrostatic energy          :       -1112.64198059 Ha      -30276.52874479 eV
  | Energy correction for multipole
  | error in Hartree potential    :           0.01538194 Ha           0.41856397 eV
  | Sum of eigenvalues per atom                           :       -4438.65024358 eV
  | Total energy (T->0) per atom                          :       -7847.96784950 eV  <-- do not rely on this value for anything but (periodic) metals
  | Electronic free energy per atom                       :       -7847.96784950 eV
  What follows are estimated values for band gap, HOMO, LUMO, etc.
  | They are estimated on a discrete k-point grid and not necessarily exact.
  | For converged numbers, create a DOS and/or band structure plot on a denser k-grid.

  Highest occupied state (VBM) at     -5.83674337 eV (relative to internal zero)
  | Occupation number:      2.00000000
  | K-point:       1 at    0.000000    0.000000    0.000000 (in units of recip. lattice)

  Lowest unoccupied state (CBM) at    -5.19003195 eV (relative to internal zero)
  | Occupation number:      0.00000000
  | K-point:       9 at    0.000000    0.500000    0.500000 (in units of recip. lattice)

  ESTIMATED overall HOMO-LUMO gap:      0.64671142 eV between HOMO at k-point 1 and LUMO at k-point 9
  | This appears to be an indirect band gap.
  | Smallest direct gap :      2.55543823 eV for k_point 1 at    0.000000    0.500000    0.500000 (in units of recip. lattice)
  The gap value is above 0.2 eV. Unless you are using a very sparse k-point grid,
  this system is most likely an insulator or a semiconductor.

  Self-consistency cycle converged.

  Removing unitary transformations (pure translations, rotations) from forces on atoms.
  Atomic forces before filtering:
  | Net force on center of mass :   0.423090E-08  0.200457E-08  0.594613E-08 eV/A
  Atomic forces after filtering:
  | Net force on center of mass :   0.000000E+00  0.664615E-24  0.132923E-23 eV/A

  Energy and forces in a compact form:
  | Total energy uncorrected      :         -0.156959356989925E+05 eV
  | Total energy corrected        :         -0.156959356989925E+05 eV  <-- do not rely on this value for anything but (periodic) metals
  | Electronic free energy        :         -0.156959356989925E+05 eV
  Total atomic forces (unitary forces cleaned) [eV/Ang]:
  |   1          0.449931397914660E-08         -0.246698372132304E-08          0.256405160717368E-08
  |   2         -0.449931397914660E-08          0.246698372132304E-08         -0.256405160717367E-08

  Removing unitary transformations (pure translations, rotations) from forces on atoms.
  Atomic forces before filtering:
  | Net force on center of mass :   0.000000E+00  0.664615E-24  0.132923E-23 eV/A
  Atomic forces after filtering:
  | Net force on center of mass :   0.000000E+00  0.000000E+00  0.000000E+00 eV/A
 ------------------------------------------------------------------------
 Atomic structure that was used in the preceding time step of the wrapper
                         x [A]             y [A]             z [A]
  lattice_vector        -0.00000000        2.71388943        2.71388943
  lattice_vector         2.71388849        0.00000000        2.71388943
  lattice_vector         2.71388849        2.71388943       -0.00000000

            atom        -0.00000000        0.00000000       -0.00000000  Si
            atom         1.35694424        1.35694471        1.35694471  Si
 ------------------------------------------------------------------------
  @ DRIVER MODE: Message from server: STATUS      
  @ DRIVER MODE: Message from server: GETFORCE    
  @ DRIVER MODE: Returning v,forces,stress 

------------------------------------------------------------------------------
  Final output of selected total energy values:

  The following output summarizes some interesting total energy values
  at the end of a run (AFTER all relaxation, molecular dynamics, etc.).

  | Total energy of the DFT / Hartree-Fock s.c.f. calculation      :         -15695.935698993 eV
  | Final zero-broadening corrected energy (caution - metals only) :         -15695.935698993 eV
  | For reference only, the value of 1 Hartree used in FHI-aims is :             27.211384500 eV
  | For reference only, the overall average (free atom contribution
  | + realspace contribution) of the electrostatic potential after
  | s.c.f. convergence is                                          :            -12.870290362 eV

  Before relying on these values, please be sure to understand exactly which
  total energy value is referred to by a given number. Different objects may
  all carry the same name 'total energy'. Definitions:

  Total energy of the DFT / Hartree-Fock s.c.f. calculation:
  | Note that this energy does not include ANY quantities calculated after the
  | s.c.f. cycle, in particular not ANY RPA, MP2, etc. many-body perturbation terms.

  Final zero-broadening corrected energy:
  | For metallic systems only, a broadening of the occupation numbers at the Fermi
  | level can be extrapolated back to zero broadening by an electron-gas inspired
  | formula. For all systems that are not real metals, this value can be
  | meaningless and should be avoided.

------------------------------------------------------------------------------
  Methods described in the following list of references were used in this FHI-aims run.
  If you publish the results, please make sure to cite these reference if they apply.
  FHI-aims is an academic code, and for our developers (often, Ph.D. students
  and postdocs), scientific credit in the community is essential.
  Thank you for helping us!

  For any use of FHI-aims, please cite:

    Volker Blum, Ralf Gehrke, Felix Hanke, Paula Havu, Ville Havu,
    Xinguo Ren, Karsten Reuter, and Matthias Scheffler
    'Ab initio molecular simulations with numeric atom-centered orbitals'
    Computer Physics Communications 180, 2175-2196 (2009)
    http://dx.doi.org/10.1016/j.cpc.2009.06.022


  For the analytical stress tensor used in your run, please cite:

    Franz Knuth, Christian Carbogno, Viktor Atalla, Volker Blum, Matthias Scheffler
    'All-electron formalism for total energy strain derivatives and
    stress tensor components for numeric atom-centered orbitals'
    Computer Physics Communications 190, 33-50 (2015).
    http://dx.doi.org/10.1016/j.cpc.2015.01.003


  The provided symmetry information was generated with SPGlib:

    Atsushi Togo, Yusuke Seto, Dimitar Pashov
    SPGlib 1.7.3 obtained from http://spglib.sourceforge.net
    Copyright (C) 2008 Atsushi Togo


  For the real-space grid partitioning and parallelization used in this calculation, please cite:

    Ville Havu, Volker Blum, Paula Havu, and Matthias Scheffler,
    'Efficient O(N) integration for all-electron electronic structure calculation'
    'using numerically tabulated basis functions'
    Journal of Computational Physics 228, 8367-8379 (2009).
    http://dx.doi.org/10.1016/j.jcp.2009.08.008

  Of course, there are many other important community references, e.g., those cited in the
  above references. Our list is limited to references that describe implementations in the
  FHI-aims code. The reason is purely practical (length of this list) - please credit others as well.

------------------------------------------------------------
          Leaving FHI-aims.
          Date     :  20181124, Time     :  145218.652

          Computational steps:
          | Number of self-consistency cycles          :           70
          | Number of SCF (re)initializations          :            8

          Detailed time accounting                     :  max(cpu_time)    wall_clock(cpu1)
          | Total time                                 :       80.582 s          80.704 s
          | Preparation time                           :        0.113 s           0.119 s
          | Boundary condition initalization           :        0.516 s           0.517 s
          | Grid partitioning                          :        0.209 s           0.209 s
          | Preloading free-atom quantities on grid    :        0.637 s           0.638 s
          | Free-atom superposition energy             :        0.094 s           0.093 s
          | Total time for integrations                :       11.453 s          11.451 s
          | Total time for solution of K.-S. equations :        0.568 s           0.569 s
          | Total time for density & force components  :       36.575 s          36.590 s
          | Total time for mixing & preconditioning    :        1.263 s           1.268 s
          | Total time for Hartree multipole update    :        0.075 s           0.074 s
          | Total time for Hartree multipole sum       :       27.978 s          27.999 s
          | Total time for total energy evaluation     :        0.009 s           0.012 s

          Partial memory accounting:
          | Residual value for overall tracked memory usage across tasks :     0.000000 MB (should be 0.000000 MB)
          | Peak values for overall tracked memory usage (after allocating d_wave):
          |   Minimum:       11.698 MB (on task 4)
          |   Maximum:       12.476 MB (on task 2)
          |   Average:       12.041 MB
          | Largest tracked array allocation (hessian_basis_wave):
          |   Minimum:        2.643 MB (on task 4)
          |   Maximum:        2.803 MB (on task 2)
          |   Average:        2.713 MB
          Note:  These values currently only include a subset of arrays which are explicitly tracked.
          The "true" memory usage will be greater.

------------------------------------------------------------
