nqpoint: 357    
npath: 7      
segment_nqpoint:
- 51
- 51
- 51
- 51
- 51
- 51
- 51
reciprocal_lattice:
- [  -0.18429553,   0.18429553,   0.18429553 ] # a*
- [   0.18429553,  -0.18429553,   0.18429553 ] # b*
- [   0.18429553,   0.18429553,  -0.18429553 ] # c*
natom: 2      
lattice:
- [    -0.000000000000000,     2.713033762910000,     2.713033762910000 ] # a
- [     2.713033762910000,    -0.000000000000000,     2.713033762910000 ] # b
- [     2.713033762910000,     2.713033762910000,     0.000000000000000 ] # c
points:
- symbol: Si # 1
  coordinates: [  0.000000000000000,  0.000000000000000,  0.000000000000000 ]
  mass: 28.085000
- symbol: Si # 2
  coordinates: [  0.250000000000000,  0.250000000000000,  0.250000000000000 ]
  mass: 28.085000
supercell_matrix:
- [   27,   -9,   -9 ]
- [   -9,   27,   -9 ]
- [   -9,   -9,   27 ]

phonon:
- q-position: [    0.0000000,    0.0000000,    0.0000000 ]
  distance:    0.0000000
  label: '$\mathrm{\mathsf{\Gamma}}$'
  band:
  - # 1
    frequency:   -0.0000000980
  - # 2
    frequency:    0.0000001750
  - # 3
    frequency:    0.0000003516
  - # 4
    frequency:   15.4188566727
  - # 5
    frequency:   15.4188566727
  - # 6
    frequency:   15.4188566727

- q-position: [    0.0050000,    0.0000000,    0.0050000 ]
  distance:    0.0018430
  band:
  - # 1
    frequency:    0.0995368830
  - # 2
    frequency:    0.0995368830
  - # 3
    frequency:    0.1515133099
  - # 4
    frequency:   15.4179694470
  - # 5
    frequency:   15.4179694470
  - # 6
    frequency:   15.4186037814

- q-position: [    0.0100000,    0.0000000,    0.0100000 ]
  distance:    0.0036859
  band:
  - # 1
    frequency:    0.1990120565
  - # 2
    frequency:    0.1990120565
  - # 3
    frequency:    0.3030029575
  - # 4
    frequency:   15.4153103310
  - # 5
    frequency:   15.4153103310
  - # 6
    frequency:   15.4178449418

- q-position: [    0.0150000,    0.0000000,    0.0150000 ]
  distance:    0.0055289
  band:
  - # 1
    frequency:    0.2983637715
  - # 2
    frequency:    0.2983637715
  - # 3
    frequency:    0.4544452986
  - # 4
    frequency:   15.4108869989
  - # 5
    frequency:   15.4108869989
  - # 6
    frequency:   15.4165796571

- q-position: [    0.0200000,    0.0000000,    0.0200000 ]
  distance:    0.0073718
  band:
  - # 1
    frequency:    0.3975302005
  - # 2
    frequency:    0.3975302005
  - # 3
    frequency:    0.6058167245
  - # 4
    frequency:   15.4047122137
  - # 5
    frequency:   15.4047122137
  - # 6
    frequency:   15.4148071013

- q-position: [    0.0250000,    0.0000000,    0.0250000 ]
  distance:    0.0092148
  band:
  - # 1
    frequency:    0.4964494015
  - # 2
    frequency:    0.4964494015
  - # 3
    frequency:    0.7570936803
  - # 4
    frequency:   15.3968037849
  - # 5
    frequency:   15.3968037849
  - # 6
    frequency:   15.4125261213

- q-position: [    0.0300000,    0.0000000,    0.0300000 ]
  distance:    0.0110577
  band:
  - # 1
    frequency:    0.5950592849
  - # 2
    frequency:    0.5950592849
  - # 3
    frequency:    0.9082526826
  - # 4
    frequency:   15.3871845108
  - # 5
    frequency:   15.3871845108
  - # 6
    frequency:   15.4097352411

- q-position: [    0.0350000,    0.0000000,    0.0350000 ]
  distance:    0.0129007
  band:
  - # 1
    frequency:    0.6932975846
  - # 2
    frequency:    0.6932975846
  - # 3
    frequency:    1.0592703362
  - # 4
    frequency:   15.3758821029
  - # 5
    frequency:   15.3758821029
  - # 6
    frequency:   15.4064326661

- q-position: [    0.0400000,    0.0000000,    0.0400000 ]
  distance:    0.0147436
  band:
  - # 1
    frequency:    0.7911018352
  - # 2
    frequency:    0.7911018352
  - # 3
    frequency:    1.2101233522
  - # 4
    frequency:   15.3629290951
  - # 5
    frequency:   15.3629290951
  - # 6
    frequency:   15.4026162888

- q-position: [    0.0450000,    0.0000000,    0.0450000 ]
  distance:    0.0165866
  band:
  - # 1
    frequency:    0.8884093554
  - # 2
    frequency:    0.8884093554
  - # 3
    frequency:    1.3607885643
  - # 4
    frequency:   15.3483627346
  - # 5
    frequency:   15.3483627346
  - # 6
    frequency:   15.3982836954

- q-position: [    0.0500000,    0.0000000,    0.0500000 ]
  distance:    0.0184296
  band:
  - # 1
    frequency:    0.9851572389
  - # 2
    frequency:    0.9851572389
  - # 3
    frequency:    1.5112429457
  - # 4
    frequency:   15.3322248578
  - # 5
    frequency:   15.3322248578
  - # 6
    frequency:   15.3934321732

- q-position: [    0.0550000,    0.0000000,    0.0550000 ]
  distance:    0.0202725
  band:
  - # 1
    frequency:    1.0812823540
  - # 2
    frequency:    1.0812823540
  - # 3
    frequency:    1.6614636251
  - # 4
    frequency:   15.3145617487
  - # 5
    frequency:   15.3145617487
  - # 6
    frequency:   15.3880587190

- q-position: [    0.0600000,    0.0000000,    0.0600000 ]
  distance:    0.0221155
  band:
  - # 1
    frequency:    1.1767213529
  - # 2
    frequency:    1.1767213529
  - # 3
    frequency:    1.8114279026
  - # 4
    frequency:   15.2954239811
  - # 5
    frequency:   15.2954239811
  - # 6
    frequency:   15.3821600481

- q-position: [    0.0650000,    0.0000000,    0.0650000 ]
  distance:    0.0239584
  band:
  - # 1
    frequency:    1.2714106908
  - # 2
    frequency:    1.2714106908
  - # 3
    frequency:    1.9611132651
  - # 4
    frequency:   15.2748662444
  - # 5
    frequency:   15.2748662444
  - # 6
    frequency:   15.3757326042

- q-position: [    0.0700000,    0.0000000,    0.0700000 ]
  distance:    0.0258014
  band:
  - # 1
    frequency:    1.3652866574
  - # 2
    frequency:    1.3652866574
  - # 3
    frequency:    2.1104974009
  - # 4
    frequency:   15.2529471534
  - # 5
    frequency:   15.2529471534
  - # 6
    frequency:   15.3687725701

- q-position: [    0.0750000,    0.0000000,    0.0750000 ]
  distance:    0.0276443
  band:
  - # 1
    frequency:    1.4582854194
  - # 2
    frequency:    1.4582854194
  - # 3
    frequency:    2.2595582141
  - # 4
    frequency:   15.2297290413
  - # 5
    frequency:   15.2297290413
  - # 6
    frequency:   15.3612758786

- q-position: [    0.0800000,    0.0000000,    0.0800000 ]
  distance:    0.0294873
  band:
  - # 1
    frequency:    1.5503430768
  - # 2
    frequency:    1.5503430768
  - # 3
    frequency:    2.4082738387
  - # 4
    frequency:   15.2052777377
  - # 5
    frequency:   15.2052777377
  - # 6
    frequency:   15.3532382245

- q-position: [    0.0850000,    0.0000000,    0.0850000 ]
  distance:    0.0313302
  band:
  - # 1
    frequency:    1.6413957317
  - # 2
    frequency:    1.6413957317
  - # 3
    frequency:    2.5566226511
  - # 4
    frequency:   15.1796623302
  - # 5
    frequency:   15.1796623302
  - # 6
    frequency:   15.3446550768

- q-position: [    0.0900000,    0.0000000,    0.0900000 ]
  distance:    0.0331732
  band:
  - # 1
    frequency:    1.7313795725
  - # 2
    frequency:    1.7313795725
  - # 3
    frequency:    2.7045832833
  - # 4
    frequency:   15.1529549110
  - # 5
    frequency:   15.1529549110
  - # 6
    frequency:   15.3355216912

- q-position: [    0.0950000,    0.0000000,    0.0950000 ]
  distance:    0.0350162
  band:
  - # 1
    frequency:    1.8202309711
  - # 2
    frequency:    1.8202309711
  - # 3
    frequency:    2.8521346343
  - # 4
    frequency:   15.1252303085
  - # 5
    frequency:   15.1252303085
  - # 6
    frequency:   15.3258331235

- q-position: [    0.1000000,    0.0000000,    0.1000000 ]
  distance:    0.0368591
  band:
  - # 1
    frequency:    1.9078865962
  - # 2
    frequency:    1.9078865962
  - # 3
    frequency:    2.9992558818
  - # 4
    frequency:   15.0965658041
  - # 5
    frequency:   15.0965658041
  - # 6
    frequency:   15.3155842422

- q-position: [    0.1050000,    0.0000000,    0.1050000 ]
  distance:    0.0387021
  band:
  - # 1
    frequency:    1.9942835411
  - # 2
    frequency:    1.9942835411
  - # 3
    frequency:    3.1459264927
  - # 4
    frequency:   15.0670408358
  - # 5
    frequency:   15.0670408358
  - # 6
    frequency:   15.3047697430

- q-position: [    0.1100000,    0.0000000,    0.1100000 ]
  distance:    0.0405450
  band:
  - # 1
    frequency:    2.0793594670
  - # 2
    frequency:    2.0793594670
  - # 3
    frequency:    3.2921262327
  - # 4
    frequency:   15.0367366880
  - # 5
    frequency:   15.0367366880
  - # 6
    frequency:   15.2933841613

- q-position: [    0.1150000,    0.0000000,    0.1150000 ]
  distance:    0.0423880
  band:
  - # 1
    frequency:    2.1630527607
  - # 2
    frequency:    2.1630527607
  - # 3
    frequency:    3.4378351761
  - # 4
    frequency:   15.0057361689
  - # 5
    frequency:   15.0057361689
  - # 6
    frequency:   15.2814218869

- q-position: [    0.1200000,    0.0000000,    0.1200000 ]
  distance:    0.0442309
  band:
  - # 1
    frequency:    2.2453027078
  - # 2
    frequency:    2.2453027078
  - # 3
    frequency:    3.5830337138
  - # 4
    frequency:   14.9741232766
  - # 5
    frequency:   14.9741232766
  - # 6
    frequency:   15.2688771767

- q-position: [    0.1250000,    0.0000000,    0.1250000 ]
  distance:    0.0460739
  band:
  - # 1
    frequency:    2.3260496799
  - # 2
    frequency:    2.3260496799
  - # 3
    frequency:    3.7277025616
  - # 4
    frequency:   14.9419828552
  - # 5
    frequency:   14.9419828552
  - # 6
    frequency:   15.2557441692

- q-position: [    0.1300000,    0.0000000,    0.1300000 ]
  distance:    0.0479168
  band:
  - # 1
    frequency:    2.4052353353
  - # 2
    frequency:    2.4052353353
  - # 3
    frequency:    3.8718227671
  - # 4
    frequency:   14.9094002409
  - # 5
    frequency:   14.9094002409
  - # 6
    frequency:   15.2420168970

- q-position: [    0.1350000,    0.0000000,    0.1350000 ]
  distance:    0.0497598
  band:
  - # 1
    frequency:    2.4828028326
  - # 2
    frequency:    2.4828028326
  - # 3
    frequency:    4.0153757162
  - # 4
    frequency:   14.8764609016
  - # 5
    frequency:   14.8764609016
  - # 6
    frequency:   15.2276893006

- q-position: [    0.1400000,    0.0000000,    0.1400000 ]
  distance:    0.0516027
  band:
  - # 1
    frequency:    2.5586970560
  - # 2
    frequency:    2.5586970560
  - # 3
    frequency:    4.1583431387
  - # 4
    frequency:   14.8432500696
  - # 5
    frequency:   14.8432500696
  - # 6
    frequency:   15.2127552409

- q-position: [    0.1450000,    0.0000000,    0.1450000 ]
  distance:    0.0534457
  band:
  - # 1
    frequency:    2.6328648503
  - # 2
    frequency:    2.6328648503
  - # 3
    frequency:    4.3007071141
  - # 4
    frequency:   14.8098523711
  - # 5
    frequency:   14.8098523711
  - # 6
    frequency:   15.1972085117

- q-position: [    0.1500000,    0.0000000,    0.1500000 ]
  distance:    0.0552887
  band:
  - # 1
    frequency:    2.7052552652
  - # 2
    frequency:    2.7052552652
  - # 3
    frequency:    4.4424500750
  - # 4
    frequency:   14.7763514526
  - # 5
    frequency:   14.7763514526
  - # 6
    frequency:   15.1810428522

- q-position: [    0.1550000,    0.0000000,    0.1550000 ]
  distance:    0.0571316
  band:
  - # 1
    frequency:    2.7758198057
  - # 2
    frequency:    2.7758198057
  - # 3
    frequency:    4.5835548119
  - # 4
    frequency:   14.7428296081
  - # 5
    frequency:   14.7428296081
  - # 6
    frequency:   15.1642519576

- q-position: [    0.1600000,    0.0000000,    0.1600000 ]
  distance:    0.0589746
  band:
  - # 1
    frequency:    2.8445126873
  - # 2
    frequency:    2.8445126873
  - # 3
    frequency:    4.7240044758
  - # 4
    frequency:   14.7093674090
  - # 5
    frequency:   14.7093674090
  - # 6
    frequency:   15.1468294913

- q-position: [    0.1650000,    0.0000000,    0.1650000 ]
  distance:    0.0608175
  band:
  - # 1
    frequency:    2.9112910936
  - # 2
    frequency:    2.9112910936
  - # 3
    frequency:    4.8637825807
  - # 4
    frequency:   14.6760433389
  - # 5
    frequency:   14.6760433389
  - # 6
    frequency:   15.1287690945

- q-position: [    0.1700000,    0.0000000,    0.1700000 ]
  distance:    0.0626605
  band:
  - # 1
    frequency:    2.9761154329
  - # 2
    frequency:    2.9761154329
  - # 3
    frequency:    5.0028730061
  - # 4
    frequency:   14.6429334366
  - # 5
    frequency:   14.6429334366
  - # 6
    frequency:   15.1100643964

- q-position: [    0.1750000,    0.0000000,    0.1750000 ]
  distance:    0.0645034
  band:
  - # 1
    frequency:    3.0389495922
  - # 2
    frequency:    3.0389495922
  - # 3
    frequency:    5.1412599981
  - # 4
    frequency:   14.6101109501
  - # 5
    frequency:   14.6101109501
  - # 6
    frequency:   15.0907090235

- q-position: [    0.1800000,    0.0000000,    0.1800000 ]
  distance:    0.0663464
  band:
  - # 1
    frequency:    3.0997611848
  - # 2
    frequency:    3.0997611848
  - # 3
    frequency:    5.2789281704
  - # 4
    frequency:   14.5776460043
  - # 5
    frequency:   14.5776460043
  - # 6
    frequency:   15.0706966078

- q-position: [    0.1850000,    0.0000000,    0.1850000 ]
  distance:    0.0681893
  band:
  - # 1
    frequency:    3.1585217881
  - # 2
    frequency:    3.1585217881
  - # 3
    frequency:    5.4158625046
  - # 4
    frequency:   14.5456052865
  - # 5
    frequency:   14.5456052865
  - # 6
    frequency:   15.0500207948

- q-position: [    0.1900000,    0.0000000,    0.1900000 ]
  distance:    0.0700323
  band:
  - # 1
    frequency:    3.2152071697
  - # 2
    frequency:    3.2152071697
  - # 3
    frequency:    5.5520483505
  - # 4
    frequency:   14.5140517513
  - # 5
    frequency:   14.5140517513
  - # 6
    frequency:   15.0286752505

- q-position: [    0.1950000,    0.0000000,    0.1950000 ]
  distance:    0.0718753
  band:
  - # 1
    frequency:    3.2697974970
  - # 2
    frequency:    3.2697974970
  - # 3
    frequency:    5.6874714251
  - # 4
    frequency:   14.4830443503
  - # 5
    frequency:   14.4830443503
  - # 6
    frequency:   15.0066536675

- q-position: [    0.2000000,    0.0000000,    0.2000000 ]
  distance:    0.0737182
  band:
  - # 1
    frequency:    3.3222775281
  - # 2
    frequency:    3.3222775281
  - # 3
    frequency:    5.8221178124
  - # 4
    frequency:   14.4526377864
  - # 5
    frequency:   14.4526377864
  - # 6
    frequency:   14.9839497710

- q-position: [    0.2050000,    0.0000000,    0.2050000 ]
  distance:    0.0755612
  band:
  - # 1
    frequency:    3.3726367800
  - # 2
    frequency:    3.3726367800
  - # 3
    frequency:    5.9559739617
  - # 4
    frequency:   14.4228822993
  - # 5
    frequency:   14.4228822993
  - # 6
    frequency:   14.9605573232

- q-position: [    0.2100000,    0.0000000,    0.2100000 ]
  distance:    0.0774041
  band:
  - # 1
    frequency:    3.4208696719
  - # 2
    frequency:    3.4208696719
  - # 3
    frequency:    6.0890266862
  - # 4
    frequency:   14.3938234821
  - # 5
    frequency:   14.3938234821
  - # 6
    frequency:   14.9364701274

- q-position: [    0.2150000,    0.0000000,    0.2150000 ]
  distance:    0.0792471
  band:
  - # 1
    frequency:    3.4669756403
  - # 2
    frequency:    3.4669756403
  - # 3
    frequency:    6.2212631612
  - # 4
    frequency:   14.3655021326
  - # 5
    frequency:   14.3655021326
  - # 6
    frequency:   14.9116820312

- q-position: [    0.2200000,    0.0000000,    0.2200000 ]
  distance:    0.0810900
  band:
  - # 1
    frequency:    3.5109592230
  - # 2
    frequency:    3.5109592230
  - # 3
    frequency:    6.3526709220
  - # 4
    frequency:   14.3379541415
  - # 5
    frequency:   14.3379541415
  - # 6
    frequency:   14.8861869294

- q-position: [    0.2250000,    0.0000000,    0.2250000 ]
  distance:    0.0829330
  band:
  - # 1
    frequency:    3.5528301103
  - # 2
    frequency:    3.5528301103
  - # 3
    frequency:    6.4832378615
  - # 4
    frequency:   14.3112104187
  - # 5
    frequency:   14.3112104187
  - # 6
    frequency:   14.8599787653

- q-position: [    0.2300000,    0.0000000,    0.2300000 ]
  distance:    0.0847759
  band:
  - # 1
    frequency:    3.5926031614
  - # 2
    frequency:    3.5926031614
  - # 3
    frequency:    6.6129522278
  - # 4
    frequency:   14.2852968591
  - # 5
    frequency:   14.2852968591
  - # 6
    frequency:   14.8330515320

- q-position: [    0.2350000,    0.0000000,    0.2350000 ]
  distance:    0.0866189
  band:
  - # 1
    frequency:    3.6302983846
  - # 2
    frequency:    3.6302983846
  - # 3
    frequency:    6.7418026216
  - # 4
    frequency:   14.2602343494
  - # 5
    frequency:   14.2602343494
  - # 6
    frequency:   14.8053992730

- q-position: [    0.2400000,    0.0000000,    0.2400000 ]
  distance:    0.0884619
  band:
  - # 1
    frequency:    3.6659408795
  - # 2
    frequency:    3.6659408795
  - # 3
    frequency:    6.8697779933
  - # 4
    frequency:   14.2360388142
  - # 5
    frequency:   14.2360388142
  - # 6
    frequency:   14.7770160817

- q-position: [    0.2450000,    0.0000000,    0.2450000 ]
  distance:    0.0903048
  band:
  - # 1
    frequency:    3.6995607429
  - # 2
    frequency:    3.6995607429
  - # 3
    frequency:    6.9968676402
  - # 4
    frequency:   14.2127213039
  - # 5
    frequency:   14.2127213039
  - # 6
    frequency:   14.7478961009

- q-position: [    0.2500000,    0.0000000,    0.2500000 ]
  distance:    0.0921478
  label: '$\mathrm{\mathsf{\Delta}}$'
  band:
  - # 1
    frequency:    3.7311929356
  - # 2
    frequency:    3.7311929356
  - # 3
    frequency:    7.1230612037
  - # 4
    frequency:   14.1902881205
  - # 5
    frequency:   14.1902881205
  - # 6
    frequency:   14.7180335211

- q-position: [    0.2500000,    0.0000000,    0.2500000 ]
  distance:    0.0921478
  label: '$\mathrm{\mathsf{\Delta}}$'
  band:
  - # 1
    frequency:    3.7311929356
  - # 2
    frequency:    3.7311929356
  - # 3
    frequency:    7.1230612037
  - # 4
    frequency:   14.1902881205
  - # 5
    frequency:   14.1902881205
  - # 6
    frequency:   14.7180335211

- q-position: [    0.2550000,    0.0000000,    0.2550000 ]
  distance:    0.0939907
  band:
  - # 1
    frequency:    3.7608771138
  - # 2
    frequency:    3.7608771138
  - # 3
    frequency:    7.2483486663
  - # 4
    frequency:   14.1687409822
  - # 5
    frequency:   14.1687409822
  - # 6
    frequency:   14.6874225786

- q-position: [    0.2600000,    0.0000000,    0.2600000 ]
  distance:    0.0958337
  band:
  - # 1
    frequency:    3.7886574236
  - # 2
    frequency:    3.7886574236
  - # 3
    frequency:    7.3727203486
  - # 4
    frequency:   14.1480772235
  - # 5
    frequency:   14.1480772235
  - # 6
    frequency:   14.6560575537

- q-position: [    0.2650000,    0.0000000,    0.2650000 ]
  distance:    0.0976766
  band:
  - # 1
    frequency:    3.8145822621
  - # 2
    frequency:    3.8145822621
  - # 3
    frequency:    7.4961669064
  - # 4
    frequency:   14.1282900282
  - # 5
    frequency:   14.1282900282
  - # 6
    frequency:   14.6239327670

- q-position: [    0.2700000,    0.0000000,    0.2700000 ]
  distance:    0.0995196
  band:
  - # 1
    frequency:    3.8387040067
  - # 2
    frequency:    3.8387040067
  - # 3
    frequency:    7.6186793281
  - # 4
    frequency:   14.1093686936
  - # 5
    frequency:   14.1093686936
  - # 6
    frequency:   14.5910425770

- q-position: [    0.2750000,    0.0000000,    0.2750000 ]
  distance:    0.1013625
  band:
  - # 1
    frequency:    3.8610787150
  - # 2
    frequency:    3.8610787150
  - # 3
    frequency:    7.7402489315
  - # 4
    frequency:   14.0912989205
  - # 5
    frequency:   14.0912989205
  - # 6
    frequency:   14.5573813763

- q-position: [    0.2800000,    0.0000000,    0.2800000 ]
  distance:    0.1032055
  band:
  - # 1
    frequency:    3.8817657987
  - # 2
    frequency:    3.8817657987
  - # 3
    frequency:    7.8608673615
  - # 4
    frequency:   14.0740631272
  - # 5
    frequency:   14.0740631272
  - # 6
    frequency:   14.5229435876

- q-position: [    0.2850000,    0.0000000,    0.2850000 ]
  distance:    0.1050485
  band:
  - # 1
    frequency:    3.9008276748
  - # 2
    frequency:    3.9008276748
  - # 3
    frequency:    7.9805265870
  - # 4
    frequency:   14.0576407818
  - # 5
    frequency:   14.0576407818
  - # 6
    frequency:   14.4877236604

- q-position: [    0.2900000,    0.0000000,    0.2900000 ]
  distance:    0.1068914
  band:
  - # 1
    frequency:    3.9183293969
  - # 2
    frequency:    3.9183293969
  - # 3
    frequency:    8.0992188991
  - # 4
    frequency:   14.0420087497
  - # 5
    frequency:   14.0420087497
  - # 6
    frequency:   14.4517160661

- q-position: [    0.2950000,    0.0000000,    0.2950000 ]
  distance:    0.1087344
  band:
  - # 1
    frequency:    3.9343382723
  - # 2
    frequency:    3.9343382723
  - # 3
    frequency:    8.2169369080
  - # 4
    frequency:   14.0271416515
  - # 5
    frequency:   14.0271416515
  - # 6
    frequency:   14.4149152945

- q-position: [    0.3000000,    0.0000000,    0.3000000 ]
  distance:    0.1105773
  band:
  - # 1
    frequency:    3.9489234669
  - # 2
    frequency:    3.9489234669
  - # 3
    frequency:    8.3336735414
  - # 4
    frequency:   14.0130122267
  - # 5
    frequency:   14.0130122267
  - # 6
    frequency:   14.3773158491

- q-position: [    0.3050000,    0.0000000,    0.3050000 ]
  distance:    0.1124203
  band:
  - # 1
    frequency:    3.9621556025
  - # 2
    frequency:    3.9621556025
  - # 3
    frequency:    8.4494220419
  - # 4
    frequency:   13.9995916993
  - # 5
    frequency:   13.9995916993
  - # 6
    frequency:   14.3389122432

- q-position: [    0.3100000,    0.0000000,    0.3100000 ]
  distance:    0.1142632
  band:
  - # 1
    frequency:    3.9741063519
  - # 2
    frequency:    3.9741063519
  - # 3
    frequency:    8.5641759654
  - # 4
    frequency:   13.9868501409
  - # 5
    frequency:   13.9868501409
  - # 6
    frequency:   14.2996989955

- q-position: [    0.3150000,    0.0000000,    0.3150000 ]
  distance:    0.1161062
  band:
  - # 1
    frequency:    3.9848480329
  - # 2
    frequency:    3.9848480329
  - # 3
    frequency:    8.6779291790
  - # 4
    frequency:   13.9747568266
  - # 5
    frequency:   13.9747568266
  - # 6
    frequency:   14.2596706263

- q-position: [    0.3200000,    0.0000000,    0.3200000 ]
  distance:    0.1179491
  band:
  - # 1
    frequency:    3.9944532087
  - # 2
    frequency:    3.9944532087
  - # 3
    frequency:    8.7906758595
  - # 4
    frequency:   13.9632805811
  - # 5
    frequency:   13.9632805811
  - # 6
    frequency:   14.2188216537

- q-position: [    0.3250000,    0.0000000,    0.3250000 ]
  distance:    0.1197921
  band:
  - # 1
    frequency:    4.0029942950
  - # 2
    frequency:    4.0029942950
  - # 3
    frequency:    8.9024104917
  - # 4
    frequency:   13.9523901107
  - # 5
    frequency:   13.9523901107
  - # 6
    frequency:   14.1771465897

- q-position: [    0.3300000,    0.0000000,    0.3300000 ]
  distance:    0.1216351
  band:
  - # 1
    frequency:    4.0105431801
  - # 2
    frequency:    4.0105431801
  - # 3
    frequency:    9.0131278670
  - # 4
    frequency:   13.9420543175
  - # 5
    frequency:   13.9420543175
  - # 6
    frequency:   14.1346399376

- q-position: [    0.3350000,    0.0000000,    0.3350000 ]
  distance:    0.1234780
  band:
  - # 1
    frequency:    4.0171708592
  - # 2
    frequency:    4.0171708592
  - # 3
    frequency:    9.1228230820
  - # 4
    frequency:   13.9322425947
  - # 5
    frequency:   13.9322425947
  - # 6
    frequency:   14.0912961883

- q-position: [    0.3400000,    0.0000000,    0.3400000 ]
  distance:    0.1253210
  band:
  - # 1
    frequency:    4.0229470878
  - # 2
    frequency:    4.0229470878
  - # 3
    frequency:    9.2314915372
  - # 4
    frequency:   13.9229250981
  - # 5
    frequency:   13.9229250981
  - # 6
    frequency:   14.0471098181

- q-position: [    0.3450000,    0.0000000,    0.3450000 ]
  distance:    0.1271639
  band:
  - # 1
    frequency:    4.0279400556
  - # 2
    frequency:    4.0279400556
  - # 3
    frequency:    9.3391289361
  - # 4
    frequency:   13.9140729939
  - # 5
    frequency:   13.9140729939
  - # 6
    frequency:   14.0020752865

- q-position: [    0.3500000,    0.0000000,    0.3500000 ]
  distance:    0.1290069
  band:
  - # 1
    frequency:    4.0322160847
  - # 2
    frequency:    4.0322160847
  - # 3
    frequency:    9.4457312834
  - # 4
    frequency:   13.9056586803
  - # 5
    frequency:   13.9056586803
  - # 6
    frequency:   13.9561870344

- q-position: [    0.3550000,    0.0000000,    0.3550000 ]
  distance:    0.1308498
  band:
  - # 1
    frequency:    4.0358393529
  - # 2
    frequency:    4.0358393529
  - # 3
    frequency:    9.5512948847
  - # 4
    frequency:   13.8976559808
  - # 5
    frequency:   13.8976559808
  - # 6
    frequency:   13.9094394829

- q-position: [    0.3600000,    0.0000000,    0.3600000 ]
  distance:    0.1326928
  band:
  - # 1
    frequency:    4.0388716459
  - # 2
    frequency:    4.0388716459
  - # 3
    frequency:    9.6558163447
  - # 4
    frequency:   13.8618270326
  - # 5
    frequency:   13.8900403099
  - # 6
    frequency:   13.8900403099

- q-position: [    0.3650000,    0.0000000,    0.3650000 ]
  distance:    0.1345357
  band:
  - # 1
    frequency:    4.0413721377
  - # 2
    frequency:    4.0413721377
  - # 3
    frequency:    9.7592925668
  - # 4
    frequency:   13.8133440632
  - # 5
    frequency:   13.8827888098
  - # 6
    frequency:   13.8827888098

- q-position: [    0.3700000,    0.0000000,    0.3700000 ]
  distance:    0.1363787
  band:
  - # 1
    frequency:    4.0433972031
  - # 2
    frequency:    4.0433972031
  - # 3
    frequency:    9.8617207512
  - # 4
    frequency:   13.7639849341
  - # 5
    frequency:   13.8758804572
  - # 6
    frequency:   13.8758804572

- q-position: [    0.3750000,    0.0000000,    0.3750000 ]
  distance:    0.1382216
  band:
  - # 1
    frequency:    4.0450002612
  - # 2
    frequency:    4.0450002612
  - # 3
    frequency:    9.9630983942
  - # 4
    frequency:   13.7137439851
  - # 5
    frequency:   13.8692961426
  - # 6
    frequency:   13.8692961426

- q-position: [    0.3800000,    0.0000000,    0.3800000 ]
  distance:    0.1400646
  band:
  - # 1
    frequency:    4.0462316508
  - # 2
    frequency:    4.0462316508
  - # 3
    frequency:   10.0634232868
  - # 4
    frequency:   13.6626155379
  - # 5
    frequency:   13.8630187201
  - # 6
    frequency:   13.8630187201

- q-position: [    0.3850000,    0.0000000,    0.3850000 ]
  distance:    0.1419076
  band:
  - # 1
    frequency:    4.0471385397
  - # 2
    frequency:    4.0471385397
  - # 3
    frequency:   10.1626935134
  - # 4
    frequency:   13.6105938984
  - # 5
    frequency:   13.8570330300
  - # 6
    frequency:   13.8570330300

- q-position: [    0.3900000,    0.0000000,    0.3900000 ]
  distance:    0.1437505
  band:
  - # 1
    frequency:    4.0477648650
  - # 2
    frequency:    4.0477648650
  - # 3
    frequency:   10.2609074502
  - # 4
    frequency:   13.5576733589
  - # 5
    frequency:   13.8513258956
  - # 6
    frequency:   13.8513258956

- q-position: [    0.3950000,    0.0000000,    0.3950000 ]
  distance:    0.1455935
  band:
  - # 1
    frequency:    4.0481513059
  - # 2
    frequency:    4.0481513059
  - # 3
    frequency:   10.3580637632
  - # 4
    frequency:   13.5038482015
  - # 5
    frequency:   13.8458860937
  - # 6
    frequency:   13.8458860937

- q-position: [    0.4000000,    0.0000000,    0.4000000 ]
  distance:    0.1474364
  band:
  - # 1
    frequency:    4.0483352881
  - # 2
    frequency:    4.0483352881
  - # 3
    frequency:   10.4541614069
  - # 4
    frequency:   13.4491127021
  - # 5
    frequency:   13.8407043026
  - # 6
    frequency:   13.8407043026

- q-position: [    0.4050000,    0.0000000,    0.4050000 ]
  distance:    0.1492794
  band:
  - # 1
    frequency:    4.0483510171
  - # 2
    frequency:    4.0483510171
  - # 3
    frequency:   10.5491996220
  - # 4
    frequency:   13.3934611345
  - # 5
    frequency:   13.8357730278
  - # 6
    frequency:   13.8357730278

- q-position: [    0.4100000,    0.0000000,    0.4100000 ]
  distance:    0.1511223
  band:
  - # 1
    frequency:    4.0482295406
  - # 2
    frequency:    4.0482295406
  - # 3
    frequency:   10.6431779327
  - # 4
    frequency:   13.3368877753
  - # 5
    frequency:   13.8310865081
  - # 6
    frequency:   13.8310865081

- q-position: [    0.4150000,    0.0000000,    0.4150000 ]
  distance:    0.1529653
  band:
  - # 1
    frequency:    4.0479988364
  - # 2
    frequency:    4.0479988364
  - # 3
    frequency:   10.7360961447
  - # 4
    frequency:   13.2793869095
  - # 5
    frequency:   13.8266406039
  - # 6
    frequency:   13.8266406039

- q-position: [    0.4200000,    0.0000000,    0.4200000 ]
  distance:    0.1548082
  band:
  - # 1
    frequency:    4.0476839258
  - # 2
    frequency:    4.0476839258
  - # 3
    frequency:   10.8279543421
  - # 4
    frequency:   13.2209528362
  - # 5
    frequency:   13.8224326706
  - # 6
    frequency:   13.8224326706

- q-position: [    0.4250000,    0.0000000,    0.4250000 ]
  distance:    0.1566512
  band:
  - # 1
    frequency:    4.0473070067
  - # 2
    frequency:    4.0473070067
  - # 3
    frequency:   10.9187528840
  - # 4
    frequency:   13.1615798752
  - # 5
    frequency:   13.8184614179
  - # 6
    frequency:   13.8184614179

- q-position: [    0.4300000,    0.0000000,    0.4300000 ]
  distance:    0.1584942
  band:
  - # 1
    frequency:    4.0468876071
  - # 2
    frequency:    4.0468876071
  - # 3
    frequency:   11.0084924014
  - # 4
    frequency:   13.1012623737
  - # 5
    frequency:   13.8147267598
  - # 6
    frequency:   13.8147267598

- q-position: [    0.4350000,    0.0000000,    0.4350000 ]
  distance:    0.1603371
  band:
  - # 1
    frequency:    4.0464427532
  - # 2
    frequency:    4.0464427532
  - # 3
    frequency:   11.0971737932
  - # 4
    frequency:   13.0399947137
  - # 5