nqpoint: 357
npath: 7
segment_nqpoint:
- 51
- 51
- 51
- 51
- 51
- 51
- 51
reciprocal_lattice:
- [   0.08108985,   0.00000000,   0.00000000 ] # a*
- [   0.00000000,   0.08108985,   0.00000000 ] # b*
- [   0.00000000,   0.00000000,   0.08108985 ] # c*
natom: 40
lattice:
- [    12.332000000000001,     0.000000000000000,     0.000000000000000 ] # a
- [     0.000000000000000,    12.332000000000001,     0.000000000000000 ] # b
- [     0.000000000000000,     0.000000000000000,    12.332000000000001 ] # c
points:
- symbol: Cs # 1
  coordinates: [  0.250000000000000,  0.250000000000000,  0.250000000000000 ]
  mass: 132.905452
- symbol: Cs # 2
  coordinates: [  0.750000000000000,  0.250000000000000,  0.250000000000000 ]
  mass: 132.905452
- symbol: Cs # 3
  coordinates: [  0.250000000000000,  0.750000000000000,  0.250000000000000 ]
  mass: 132.905452
- symbol: Cs # 4
  coordinates: [  0.750000000000000,  0.750000000000000,  0.250000000000000 ]
  mass: 132.905452
- symbol: Cs # 5
  coordinates: [  0.250000000000000,  0.250000000000000,  0.750000000000000 ]
  mass: 132.905452
- symbol: Cs # 6
  coordinates: [  0.750000000000000,  0.250000000000000,  0.750000000000000 ]
  mass: 132.905452
- symbol: Cs # 7
  coordinates: [  0.250000000000000,  0.750000000000000,  0.750000000000000 ]
  mass: 132.905452
- symbol: Cs # 8
  coordinates: [  0.750000000000000,  0.750000000000000,  0.750000000000000 ]
  mass: 132.905452
- symbol: Pb # 9
  coordinates: [  0.000000000000000,  0.000000000000000,  0.000000000000000 ]
  mass: 207.200000
- symbol: Pb # 10
  coordinates: [  0.500000000000000,  0.000000000000000,  0.000000000000000 ]
  mass: 207.200000
- symbol: Pb # 11
  coordinates: [  0.000000000000000,  0.500000000000000,  0.000000000000000 ]
  mass: 207.200000
- symbol: Pb # 12
  coordinates: [  0.500000000000000,  0.500000000000000,  0.000000000000000 ]
  mass: 207.200000
- symbol: Pb # 13
  coordinates: [  0.000000000000000,  0.000000000000000,  0.500000000000000 ]
  mass: 207.200000
- symbol: Pb # 14
  coordinates: [  0.500000000000000,  0.000000000000000,  0.500000000000000 ]
  mass: 207.200000
- symbol: Pb # 15
  coordinates: [  0.000000000000000,  0.500000000000000,  0.500000000000000 ]
  mass: 207.200000
- symbol: Pb # 16
  coordinates: [  0.500000000000000,  0.500000000000000,  0.500000000000000 ]
  mass: 207.200000
- symbol: I  # 17
  coordinates: [  0.250000000000000,  0.000000000000000,  0.000000000000000 ]
  mass: 126.904470
- symbol: I  # 18
  coordinates: [  0.750000000000000,  0.000000000000000,  0.000000000000000 ]
  mass: 126.904470
- symbol: I  # 19
  coordinates: [  0.250000000000000,  0.500000000000000,  0.000000000000000 ]
  mass: 126.904470
- symbol: I  # 20
  coordinates: [  0.750000000000000,  0.500000000000000,  0.000000000000000 ]
  mass: 126.904470
- symbol: I  # 21
  coordinates: [  0.250000000000000,  0.000000000000000,  0.500000000000000 ]
  mass: 126.904470
- symbol: I  # 22
  coordinates: [  0.750000000000000,  0.000000000000000,  0.500000000000000 ]
  mass: 126.904470
- symbol: I  # 23
  coordinates: [  0.250000000000000,  0.500000000000000,  0.500000000000000 ]
  mass: 126.904470
- symbol: I  # 24
  coordinates: [  0.750000000000000,  0.500000000000000,  0.500000000000000 ]
  mass: 126.904470
- symbol: I  # 25
  coordinates: [  0.000000000000000,  0.250000000000000,  0.000000000000000 ]
  mass: 126.904470
- symbol: I  # 26
  coordinates: [  0.500000000000000,  0.250000000000000,  0.000000000000000 ]
  mass: 126.904470
- symbol: I  # 27
  coordinates: [  0.000000000000000,  0.750000000000000,  0.000000000000000 ]
  mass: 126.904470
- symbol: I  # 28
  coordinates: [  0.500000000000000,  0.750000000000000,  0.000000000000000 ]
  mass: 126.904470
- symbol: I  # 29
  coordinates: [  0.000000000000000,  0.250000000000000,  0.500000000000000 ]
  mass: 126.904470
- symbol: I  # 30
  coordinates: [  0.500000000000000,  0.250000000000000,  0.500000000000000 ]
  mass: 126.904470
- symbol: I  # 31
  coordinates: [  0.000000000000000,  0.750000000000000,  0.500000000000000 ]
  mass: 126.904470
- symbol: I  # 32
  coordinates: [  0.500000000000000,  0.750000000000000,  0.500000000000000 ]
  mass: 126.904470
- symbol: I  # 33
  coordinates: [  0.000000000000000,  0.000000000000000,  0.250000000000000 ]
  mass: 126.904470
- symbol: I  # 34
  coordinates: [  0.500000000000000,  0.000000000000000,  0.250000000000000 ]
  mass: 126.904470
- symbol: I  # 35
  coordinates: [  0.000000000000000,  0.500000000000000,  0.250000000000000 ]
  mass: 126.904470
- symbol: I  # 36
  coordinates: [  0.500000000000000,  0.500000000000000,  0.250000000000000 ]
  mass: 126.904470
- symbol: I  # 37
  coordinates: [  0.000000000000000,  0.000000000000000,  0.750000000000000 ]
  mass: 126.904470
- symbol: I  # 38
  coordinates: [  0.500000000000000,  0.000000000000000,  0.750000000000000 ]
  mass: 126.904470
- symbol: I  # 39
  coordinates: [  0.000000000000000,  0.500000000000000,  0.750000000000000 ]
  mass: 126.904470
- symbol: I  # 40
  coordinates: [  0.500000000000000,  0.500000000000000,  0.750000000000000 ]
  mass: 126.904470
supercell_matrix:
- [    1,    0,    0 ]
- [    0,    1,    0 ]
- [    0,    0,    1 ]

phonon:
- q-position: [    0.0000000,    0.0000000,    0.0000000 ]
  distance:    0.0000000
  label: '\Gamma'
  band:
  - # 1
    frequency:   -0.6478192412
  - # 2
    frequency:   -0.6478192412
  - # 3
    frequency:   -0.6478192412
  - # 4
    frequency:   -0.6451987012
  - # 5
    frequency:   -0.6451987012
  - # 6
    frequency:   -0.6451987012
  - # 7
    frequency:   -0.0465320366
  - # 8
    frequency:   -0.0465320366
  - # 9
    frequency:   -0.0465320366
  - # 10
    frequency:    0.6263717391
  - # 11
    frequency:    0.6263717391
  - # 12
    frequency:    0.6263717391
  - # 13
    frequency:    0.6263717391
  - # 14
    frequency:    0.6263717391
  - # 15
    frequency:    0.6263717391
  - # 16
    frequency:    0.7063706072
  - # 17
    frequency:    0.7063706072
  - # 18
    frequency:    0.7063706072
  - # 19
    frequency:    0.7554012193
  - # 20
    frequency:    0.7554012193
  - # 21
    frequency:    0.7554012193
  - # 22
    frequency:    0.8061212269
  - # 23
    frequency:    0.8061212269
  - # 24
    frequency:    0.8061212269
  - # 25
    frequency:    0.8061212269
  - # 26
    frequency:    0.8061212269
  - # 27
    frequency:    0.8061212269
  - # 28
    frequency:    0.8126400028
  - # 29
    frequency:    0.8126400028
  - # 30
    frequency:    0.8126400028
  - # 31
    frequency:    0.8238438190
  - # 32
    frequency:    0.8238438190
  - # 33
    frequency:    0.8238438190
  - # 34
    frequency:    0.8238438190
  - # 35
    frequency:    0.8238438190
  - # 36
    frequency:    0.8238438190
  - # 37
    frequency:    0.9449357338
  - # 38
    frequency:    0.9449357338
  - # 39
    frequency:    0.9449357338
  - # 40
    frequency:    0.9980273550
  - # 41
    frequency:    0.9980273550
  - # 42
    frequency:    0.9980273550
  - # 43
    frequency:    1.0046491353
  - # 44
    frequency:    1.0046491353
  - # 45
    frequency:    1.0046491353
  - # 46
    frequency:    1.0213706069
  - # 47
    frequency:    1.0213706069
  - # 48
    frequency:    1.0213706069
  - # 49
    frequency:    1.0213706069
  - # 50
    frequency:    1.0213706069
  - # 51
    frequency:    1.0213706069
  - # 52
    frequency:    1.0701163738
  - # 53
    frequency:    1.0701163738
  - # 54
    frequency:    1.0701163738
  - # 55
    frequency:    1.0701163738
  - # 56
    frequency:    1.0701163738
  - # 57
    frequency:    1.0701163738
  - # 58
    frequency:    1.1001692536
  - # 59
    frequency:    1.1001692536
  - # 60
    frequency:    1.1001692536
  - # 61
    frequency:    1.1001692536
  - # 62
    frequency:    1.1001692536
  - # 63
    frequency:    1.1001692536
  - # 64
    frequency:    1.1042688568
  - # 65
    frequency:    1.1042688568
  - # 66
    frequency:    1.1042688568
  - # 67
    frequency:    1.1909699683
  - # 68
    frequency:    1.1909699683
  - # 69
    frequency:    1.1909699683
  - # 70
    frequency:    1.1909699683
  - # 71
    frequency:    1.1909699683
  - # 72
    frequency:    1.1909699683
  - # 73
    frequency:    1.2105559471
  - # 74
    frequency:    1.2105559471
  - # 75
    frequency:    1.2105559471
  - # 76
    frequency:    1.2139285776
  - # 77
    frequency:    1.2139285776
  - # 78
    frequency:    1.2139285776
  - # 79
    frequency:    1.6171001414
  - # 80
    frequency:    1.6171001414
  - # 81
    frequency:    1.6171001414
  - # 82
    frequency:    1.6637751532
  - # 83
    frequency:    1.6637751532
  - # 84
    frequency:    1.6637751532
  - # 85
    frequency:    2.7332861276
  - # 86
    frequency:    2.7332861276
  - # 87
    frequency:    2.7332861276
  - # 88
    frequency:    2.7589786770
  - # 89
    frequency:    2.7589786770
  - # 90
    frequency:    2.7589786770
  - # 91
    frequency:    2.7589786770
  - # 92
    frequency:    2.7589786770
  - # 93
    frequency:    2.7589786770
  - # 94
    frequency:    2.8074873141
  - # 95
    frequency:    2.8074873141
  - # 96
    frequency:    2.8074873141
  - # 97
    frequency:    3.3157380175
  - # 98
    frequency:    3.3157380175
  - # 99
    frequency:    3.3157380175
  - # 100
    frequency:    3.3335932345
  - # 101
    frequency:    3.3335932345
  - # 102
    frequency:    3.3335932345
  - # 103
    frequency:    3.3335932345
  - # 104
    frequency:    3.3335932345
  - # 105
    frequency:    3.3335932345
  - # 106
    frequency:    3.3469837766
  - # 107
    frequency:    3.3469837766
  - # 108
    frequency:    3.3469837766
  - # 109
    frequency:    3.8068890281
  - # 110
    frequency:    3.8068890281
  - # 111
    frequency:    3.8173710563
  - # 112
    frequency:    3.8173710563
  - # 113
    frequency:    3.8173710563
  - # 114
    frequency:    4.0954365292
  - # 115
    frequency:    4.0954365292
  - # 116
    frequency:    4.0954365292
  - # 117
    frequency:    4.2468469704
  - # 118
    frequency:    4.2468469704
  - # 119
    frequency:    4.2468469704
  - # 120
    frequency:    4.3533674959

- q-position: [    0.0000000,    0.0100000,    0.0000000 ]
  distance:    0.0008109
  band:
  - # 1
    frequency:   -0.6478185960
  - # 2
    frequency:   -0.6476820108
  - # 3
    frequency:   -0.6476820108
  - # 4
    frequency:   -0.6451993491
  - # 5
    frequency:   -0.6450374220
  - # 6
    frequency:   -0.6450374220
  - # 7
    frequency:   -0.0456608002
  - # 8
    frequency:   -0.0456608002
  - # 9
    frequency:   -0.0346197203
  - # 10
    frequency:    0.6262574372
  - # 11
    frequency:    0.6262574372
  - # 12
    frequency:    0.6264221223
  - # 13
    frequency:    0.6264221223
  - # 14
    frequency:    0.6274028631
  - # 15
    frequency:    0.6274028631
  - # 16
    frequency:    0.7064124106
  - # 17
    frequency:    0.7064124106
  - # 18
    frequency:    0.7071015514
  - # 19
    frequency:    0.7554196528
  - # 20
    frequency:    0.7554196528
  - # 21
    frequency:    0.7554701178
  - # 22
    frequency:    0.8058289812
  - # 23
    frequency:    0.8058289812
  - # 24
    frequency:    0.8061361902
  - # 25
    frequency:    0.8061361902
  - # 26
    frequency:    0.8061552652
  - # 27
    frequency:    0.8061552652
  - # 28
    frequency:    0.8125968786
  - # 29
    frequency:    0.8125968786
  - # 30
    frequency:    0.8137415325
  - # 31
    frequency:    0.8238279951
  - # 32
    frequency:    0.8238279951
  - # 33
    frequency:    0.8238872529
  - # 34
    frequency:    0.8238872529
  - # 35
    frequency:    0.8239131726
  - # 36
    frequency:    0.8239131726
  - # 37
    frequency:    0.9449509316
  - # 38
    frequency:    0.9449529584
  - # 39
    frequency:    0.9449529584
  - # 40
    frequency:    0.9979058494
  - # 41
    frequency:    0.9979058494
  - # 42
    frequency:    0.9979742695
  - # 43
    frequency:    1.0045683274
  - # 44
    frequency:    1.0045683274
  - # 45
    frequency:    1.0046348405
  - # 46
    frequency:    1.0213438374
  - # 47
    frequency:    1.0213438374
  - # 48
    frequency:    1.0213841461
  - # 49
    frequency:    1.0213841461
  - # 50
    frequency:    1.0215250921
  - # 51
    frequency:    1.0215250921
  - # 52
    frequency:    1.0665068040
  - # 53
    frequency:    1.0665068040
  - # 54
    frequency:    1.0701062248
  - # 55
    frequency:    1.0701062248
  - # 56
    frequency:    1.0702212707
  - # 57
    frequency:    1.0702212707
  - # 58
    frequency:    1.1001393761
  - # 59
    frequency:    1.1001393761
  - # 60
    frequency:    1.1001746996
  - # 61
    frequency:    1.1001746996
  - # 62
    frequency:    1.1036516224
  - # 63
    frequency:    1.1036516224
  - # 64
    frequency:    1.1040200279
  - # 65
    frequency:    1.1043372365
  - # 66
    frequency:    1.1043372365
  - # 67
    frequency:    1.1896910919
  - # 68
    frequency:    1.1896910919
  - # 69
    frequency:    1.1909544864
  - # 70
    frequency:    1.1909544864
  - # 71
    frequency:    1.1909764825
  - # 72
    frequency:    1.1909764825
  - # 73
    frequency:    1.2106982570
  - # 74
    frequency:    1.2120434957
  - # 75
    frequency:    1.2120434957
  - # 76
    frequency:    1.2139227582
  - # 77
    frequency:    1.2139227582
  - # 78
    frequency:    1.2139976727
  - # 79
    frequency:    1.6170478343
  - # 80
    frequency:    1.6170478343
  - # 81
    frequency:    1.6171120906
  - # 82
    frequency:    1.6637195845
  - # 83
    frequency:    1.6637195845
  - # 84
    frequency:    1.6637640988
  - # 85
    frequency:    2.7329787276
  - # 86
    frequency:    2.7332922997
  - # 87
    frequency:    2.7332922997
  - # 88
    frequency:    2.7586753678
  - # 89
    frequency:    2.7586753678
  - # 90
    frequency:    2.7589721736
  - # 91
    frequency:    2.7589721736
  - # 92
    frequency:    2.7589904775
  - # 93
    frequency:    2.7589904775
  - # 94
    frequency:    2.8071691962
  - # 95
    frequency:    2.8074751969
  - # 96
    frequency:    2.8074751969
  - # 97
    frequency:    3.3157425135
  - # 98
    frequency:    3.3157425135
  - # 99
    frequency:    3.3159021942
  - # 100
    frequency:    3.3335889172
  - # 101
    frequency:    3.3335889172
  - # 102
    frequency:    3.3335965756
  - # 103
    frequency:    3.3335965756
  - # 104
    frequency:    3.3337582530
  - # 105
    frequency:    3.3337582530
  - # 106
    frequency:    3.3469805108
  - # 107
    frequency:    3.3469805108
  - # 108
    frequency:    3.3471669432
  - # 109
    frequency:    3.8068289110
  - # 110
    frequency:    3.8068916178
  - # 111
    frequency:    3.8173257062
  - # 112
    frequency:    3.8173257062
  - # 113
    frequency:    3.8173684737
  - # 114
    frequency:    4.0952523530
  - # 115
    frequency:    4.0954358664
  - # 116
    frequency:    4.0954358664
  - # 117
    frequency:    4.2467430127
  - # 118
    frequency:    4.2467430127
  - # 119
    frequency:    4.2468458590
  - # 120
    frequency:    4.3532954831

- q-position: [    0.0000000,    0.0200000,    0.0000000 ]
  distance:    0.0016218
  band:
  - # 1
    frequency:   -0.6478166609
  - # 2
    frequency:   -0.6472701886
  - # 3
    frequency:   -0.6472701886
  - # 4
    frequency:   -0.6452012920
  - # 5
    frequency:   -0.6445533966
  - # 6
    frequency:   -0.6445533966
  - # 7
    frequency:   -0.0429418268
  - # 8
    frequency:   -0.0429418268
  - # 9
    frequency:    0.0410535290
  - # 10
    frequency:    0.6259148725
  - # 11
    frequency:    0.6259148725
  - # 12
    frequency:    0.6265732034
  - # 13
    frequency:    0.6265732034
  - # 14
    frequency:    0.6304773423
  - # 15
    frequency:    0.6304773423
  - # 16
    frequency:    0.7065377519
  - # 17
    frequency:    0.7065377519
  - # 18
    frequency:    0.7092990742
  - # 19
    frequency:    0.7554749307
  - # 20
    frequency:    0.7554749307
  - # 21
    frequency:    0.7556767093
  - # 22
    frequency:    0.8049526862
  - # 23
    frequency:    0.8049526862
  - # 24
    frequency:    0.8061807371
  - # 25
    frequency:    0.8061807371
  - # 26
    frequency:    0.8062573576
  - # 27
    frequency:    0.8062573576
  - # 28
    frequency:    0.8124675448
  - # 29
    frequency:    0.8124675448
  - # 30
    frequency:    0.8170361026
  - # 31
    frequency:    0.8237805264
  - # 32
    frequency:    0.8237805264
  - # 33
    frequency:    0.8240175000
  - # 34
    frequency:    0.8240175000
  - # 35
    frequency:    0.8241211265
  - # 36
    frequency:    0.8241211265
  - # 37
    frequency:    0.9449965087
  - # 38
    frequency:    0.9450046101
  - # 39
    frequency:    0.9450046101
  - # 40
    frequency:    0.9975435333
  - # 41
    frequency:    0.9975435333
  - # 42
    frequency:    0.9978150501
  - # 43
    frequency:    1.0043267984
  - # 44
    frequency:    1.0043267984
  - # 45
    frequency:    1.0045919692
  - # 46
    frequency:    1.0212636049
  - # 47
    frequency:    1.0212636049
  - # 48
    frequency:    1.0214247464
  - # 49
    frequency:    1.0214247464
  - # 50
    frequency:    1.0219873797
  - # 51
    frequency:    1.0219873797
  - # 52
    frequency:    1.0583854030
  - # 53
    frequency:    1.0583854030
  - # 54
    frequency:    1.0700757806
  - # 55
    frequency:    1.0700757806
  - # 56
    frequency:    1.0705337746
  - # 57
    frequency:    1.0705337746
  - # 58
    frequency:    1.1000497498
  - # 59
    frequency:    1.1000497498
  - # 60
    frequency:    1.1001910329
  - # 61
    frequency:    1.1001910329
  - # 62
    frequency:    1.1032778770
  - # 63
    frequency:    1.1045474236
  - # 64
    frequency:    1.1045474236
  - # 65
    frequency:    1.1113913516
  - # 66
    frequency:    1.1113913516
  - # 67
    frequency:    1.1866288907
  - # 68
    frequency:    1.1866288907
  - # 69
    frequency:    1.1909080412
  - # 70
    frequency:    1.1909080412
  - # 71
    frequency:    1.1909960078
  - # 72
    frequency:    1.1909960078
  - # 73
    frequency:    1.2111208641
  - # 74
    frequency:    1.2139053065
  - # 75
    frequency:    1.2139053065
  - # 76
    frequency:    1.2142051389
  - # 77
    frequency:    1.2157302963
  - # 78
    frequency:    1.2157302963
  - # 79
    frequency:    1.6168909121
  - # 80
    frequency:    1.6168909121
  - # 81
    frequency:    1.6171479249
  - # 82
    frequency:    1.6635528839
  - # 83
    frequency:    1.6635528839
  - # 84
    frequency:    1.6637309449
  - # 85
    frequency:    2.7320565782
  - # 86
    frequency:    2.7333108103
  - # 87
    frequency:    2.7333108103
  - # 88
    frequency:    2.7577655203
  - # 89
    frequency:    2.7577655203
  - # 90
    frequency:    2.7589526703
  - # 91
    frequency:    2.7589526703
  - # 92
    frequency:    2.7590258680
  - # 93
    frequency:    2.7590258680
  - # 94
    frequency:    2.8062149601
  - # 95
    frequency:    2.8074388573
  - # 96
    frequency:    2.8074388573
  - # 97
    frequency:    3.3157559969
  - # 98
    frequency:    3.3157559969
  - # 99
    frequency:    3.3163944726
  - # 100
    frequency:    3.3335759694
  - # 101
    frequency:    3.3335759694
  - # 102
    frequency:    3.3336065955
  - # 103
    frequency:    3.3336065955
  - # 104
    frequency:    3.3342530815
  - # 105
    frequency:    3.3342530815
  - # 106
    frequency:    3.3469707165
  - # 107
    frequency:    3.3469707165
  - # 108
    frequency:    3.3477162764
  - # 109
    frequency:    3.8066483918
  - # 110
    frequency:    3.8068993843
  - # 111
    frequency:    3.8171894612
  - # 112
    frequency:    3.8171894612
  - # 113
    frequency:    3.8173607285
  - # 114
    frequency:    4.0947000015
  - # 115
    frequency:    4.0954339181
  - # 116
    frequency:    4.0954339181
  - # 117
    frequency:    4.2464314571
  - # 118
    frequency:    4.2464314571
  - # 119
    frequency:    4.2468425629
  - # 120
    frequency:    4.3530796896

- q-position: [    0.0000000,    0.0300000,    0.0000000 ]
  distance:    0.0024327
  band:
  - # 1
    frequency:   -0.6478134379
  - # 2
    frequency:   -0.6465833800
  - # 3
    frequency:   -0.6465833800
  - # 4
    frequency:   -0.6452045280
  - # 5
    frequency:   -0.6437460606
  - # 6
    frequency:   -0.6437460606
  - # 7
    frequency:   -0.0379825888
  - # 8
    frequency:   -0.0379825888
  - # 9
    frequency:    0.0802378115
  - # 10
    frequency:    0.6253450603
  - # 11
    frequency:    0.6253450603
  - # 12
    frequency:    0.6268247773
  - # 13
    frequency:    0.6268247773
  - # 14
    frequency:    0.6355392195
  - # 15
    frequency:    0.6355392195
  - # 16
    frequency:    0.7067464253
  - # 17
    frequency:    0.7067464253
  - # 18
    frequency:    0.7129769538
  - # 19
    frequency:    0.7555669841
  - # 20
    frequency:    0.7555669841
  - # 21
    frequency:    0.7560206815
  - # 22
    frequency:    0.8034936785
  - # 23
    frequency:    0.8034936785
  - # 24
    frequency:    0.8062538461
  - # 25
    frequency:    0.8062538461
  - # 26
    frequency:    0.8064274374
  - # 27
    frequency:    0.8064274374
  - # 28
    frequency:    0.8122521167
  - # 29
    frequency:    0.8122521167
  - # 30
    frequency:    0.8224940582
  - # 31
    frequency:    0.8237014208
  - # 32
    frequency:    0.8237014208
  - # 33
    frequency:    0.8242343968
  - # 34
    frequency:    0.8242343968
  - # 35
    frequency:    0.8244673598
  - # 36
    frequency:    0.8244673598
  - # 37
    frequency:    0.9450724157
  - # 38
    frequency:    0.9450906219
  - # 39
    frequency:    0.9450906219
  - # 40
    frequency:    0.9969468098
  - # 41
    frequency:    0.9969468098
  - # 42
    frequency:    0.9975498084
  - # 43
    frequency:    1.0039271972
  - # 44
    frequency:    1.0039271972
  - # 45
    frequency:    1.0045205598
  - # 46
    frequency:    1.0211301373
  - # 47
    frequency:    1.0211301373
  - # 48
    frequency:    1.0214923566
  - # 49
    frequency:    1.0214923566
  - # 50
    frequency:    1.0227537081
  - # 51
    frequency:    1.0227537081
  - # 52
    frequency:    1.0485373096
  - # 53
    frequency:    1.0485373096
  - # 54
    frequency:    1.0700250496
  - # 55
    frequency:    1.0700250496
  - # 56
    frequency:    1.0710475241
  - # 57
    frequency:    1.0710475241
  - # 58
    frequency:    1.0999003931
  - # 59
    frequency:    1.0999003931
  - # 60
    frequency:    1.1002182385
  - # 61
    frequency:    1.1002182385
  - # 62
    frequency:    1.1020549531
  - # 63
    frequency:    1.1049149058
  - # 64
    frequency:    1.1049149058
  - # 65
    frequency:    1.1206030947
  - # 66
    frequency:    1.1206030947
  - # 67
    frequency:    1.1828361309
  - # 68
    frequency:    1.1828361309
  - # 69
    frequency:    1.1908306347
  - # 70
    frequency:    1.1908306347
  - # 71
    frequency:    1.1910284929
  - # 72
    frequency:    1.1910284929
  - # 73
    frequency:    1.2118112576
  - # 74
    frequency:    1.2138762428
  - # 75
    frequency:    1.2138762428
  - # 76
    frequency:    1.2145515332
  - # 77
    frequency:    1.2205593543
  - # 78
    frequency:    1.2205593543
  - # 79
    frequency:    1.6166293732
  - # 80
    frequency:    1.6166293732
  - # 81
    frequency:    1.6172076055
  - # 82
    frequency:    1.6632750680
  - # 83
    frequency:    1.6632750680
  - # 84
    frequency:    1.6636757199
  - # 85
    frequency:    2.7305198316
  - # 86
    frequency:    2.7333416427
  - # 87
    frequency:    2.7333416427
  - # 88
    frequency:    2.7562493754
  - # 89
    frequency:    2.7562493754
  - # 90
    frequency:    2.7589201879
  - # 91
    frequency:    2.7589201879
  - # 92
    frequency:    2.7590848151
  - # 93
    frequency:    2.7590848151
  - # 94
    frequency:    2.8046249593
  - # 95
    frequency:    2.8073783326
  - # 96
    frequency:    2.8073783326
  - # 97
    frequency:    3.3157784534
  - # 98
    frequency:    3.3157784534
  - # 99
    frequency:    3.3172140984
  - # 100
    frequency:    3.3335544030
  - # 101
    frequency:    3.3335544030
  - # 102
    frequency:    3.3336232840
  - # 103
    frequency:    3.3336232840
  - # 104
    frequency:    3.3350770385
  - # 105
    frequency:    3.3350770385
  - # 106
    frequency:    3.3469544029
  - # 107
    frequency:    3.3469544029
  - # 108
    frequency:    3.3486312768
  - # 109
    frequency:    3.8063469675
  - # 110
    frequency:    3.8069123199
  - # 111
    frequency:    3.8169617379
  - # 112
    frequency:    3.8169617379
  - # 113
    frequency:    3.8173478284
  - # 114
    frequency:    4.0937800055
  - # 115
    frequency:    4.0954308054
  - # 116
    frequency:    4.0954308054
  - # 117
    frequency:    4.2459132556
  - # 118
    frequency:    4.2459132556
  - # 119
    frequency:    4.2468371965
  - # 120
    frequency:    4.3527208488

- q-position: [    0.0000000,    0.0400000,    0.0000000 ]
  distance:    0.0032436
  band:
  - # 1
    frequency:   -0.6478089301
  - # 2
    frequency:   -0.6456209249
  - # 3
    frequency:   -0.6456209249
  - # 4
    frequency:   -0.6452090540
  - # 5
    frequency:   -0.6426144686
  - # 6
    frequency:   -0.6426144686
  - # 7
    frequency:   -0.0296854091
  - # 8
    frequency:   -0.0296854091
  - # 9
    frequency:    0.1139280036
  - # 10
    frequency:    0.6245496685
  - # 11
    frequency:    0.6245496685
  - # 12
    frequency:    0.6271765026
  - # 13
    frequency:    0.6271765026
  - # 14
    frequency:    0.6424975374
  - # 15
    frequency:    0.6424975374
  - # 16
    frequency:    0.7070380881
  - # 17
    frequency:    0.7070380881
  - # 18
    frequency:    0.7181571482
  - # 19
    frequency:    0.7556956989
  - # 20
    frequency:    0.7556956989
  - # 21
    frequency:    0.7565015151
  - # 22
    frequency:    0.8014542176
  - # 23
    frequency:    0.8014542176
  - # 24
    frequency:    0.8063538406
  - # 25
    frequency:    0.8063538406
  - # 26
    frequency:    0.8066653933
  - # 27
    frequency:    0.8066653933
  - # 28
    frequency:    0.8119507870
  - # 29
    frequency:    0.8119507870
  - # 30
    frequency:    0.8235906895
  - # 31
    frequency:    0.8235906895
  - # 32
    frequency:    0.8245376708
  - # 33
    frequency:    0.8245376708
  - # 34
    frequency:    0.8249513388
  - # 35
    frequency:    0.8249513388
  - # 36
    frequency:    0.8300672766
  - # 37
    frequency:    0.9451785703
  - # 38
    frequency:    0.9452108823
  - # 39
    frequency:    0.9452108823
  - # 40
    frequency:    0.9961257279
  - # 41
    frequency:    0.9961257279
  - # 42
    frequency:    0.9971787301
  - # 43
    frequency:    1.0033738256
  - # 44
    frequency:    1.0033738256
  - # 45
    frequency:    1.0044206769
  - # 46
    frequency:    1.0209438128
  - # 47
    frequency:    1.0209438128
  - # 48
    frequency:    1.0215868911
  - # 49
    frequency:    1.0215868911
  - # 50
    frequency:    1.0238169331
  - # 51
    frequency:    1.0238169331
  - # 52
    frequency:    1.0379392384
  - # 53
    frequency:    1.0379392384
  - # 54
    frequency:    1.0699540461
  - # 55
    frequency:    1.0699540461
  - # 56
    frequency:    1.0717525399
  - # 57
    frequency:    1.0717525399
  - # 58
    frequency:    1.0996913368
  - # 59
    frequency:    1.0996913368
  - # 60
    frequency:    1.1002562919
  - # 61
    frequency:    1.1002562919
  - # 62
    frequency:    1.1003707540
  - # 63
    frequency:    1.1054666563
  - # 64
    frequency:    1.1054666563
  - # 65
    frequency:    1.1303097918
  - # 66
    frequency:    1.1303097918
  - # 67
    frequency:    1.1788371909
  - # 68
    frequency:    1.1788371909
  - # 69
    frequency:    1.1907222697
  - # 70
    frequency:    1.1907222697
  - # 71
    frequency:    1.1910738524
  - # 72
    frequency:    1.1910738524
  - # 73
    frequency:    1.2127500038
  - # 74
    frequency:    1.2138356006
  - # 75
    frequency:    1.2138356006
  - # 76
    frequency:    1.2150378324
  - # 77
    frequency:    1.2259993233
  - # 78
    frequency:    1.2259993233
  - # 79
    frequency:    1.6162632144
  - # 80
    frequency:    1.6162632144
  - # 81
    frequency:    1.6172910673
  - # 82
    frequency:    1.6628861643
  - # 83
    frequency:    1.6628861643
  - # 84
    frequency:    1.6635984711
  - # 85
    frequency:    2.7283687419
  - # 86
    frequency:    2.7333847689
  - # 87
    frequency:    2.7333847689
  - # 88
    frequency:    2.7541273343
  - # 89
    frequency:    2.7541273343
  - # 90
    frequency:    2.7588747607
  - # 91
    frequency:    2.7588747607
  - # 92
    frequency:    2.7591672635
  - # 93
    frequency:    2.7591672635
  - # 94
    frequency:    2.8023997814
  - # 95
    frequency:    2.8072936844
  - # 96
    frequency:    2.8072936844
  - # 97
    frequency:    3.3158098596
  - # 98
    frequency:    3.3158098596
  - # 99
    frequency:    3.3183598158
  - # 100
    frequency:    3.3335242381
  - # 101
    frequency:    3.3335242381
  - # 102
    frequency:    3.3336466241
  - # 103
    frequency:    3.3336466241
  - # 104
    frequency:    3.3362289893
  - # 105
    frequency:    3.3362289893
  - # 106
    frequency:    3.3469315857
  - # 107
    frequency:    3.3469315857
  - # 108
    frequency:    3.3499111119
  - # 109
    frequency:    3.8059238034
  - # 110
    frequency:    3.8069304117
  - # 111
    frequency:    3.8166415650
  - # 112
    frequency:    3.8166415650
  - # 113
    frequency:    3.8173297858
  - # 114
    frequency:    4.0924932493
  - # 115
    frequency:    4.0954267297
  - # 116
    frequency:    4.0954267297
  - # 117
    frequency:    4.2451899938
  - # 118
    frequency:    4.2451899938
  - # 119
    frequency:    4.2468299503
  - # 120
    frequency:    4.3522201806

- q-position: [    0.0000000,    0.0500000,    0.0000000 ]
  distance:    0.0040545
  band:
  - # 1
    frequency:   -0.6478031420
  - # 2
    frequency:   -0.6452148654
  - # 3
    frequency:   -0.6443818933
  - # 4
    frequency:   -0.6443818933
  - # 5