nqpoint: 357
npath: 7
segment_nqpoint:
- 51
- 51
- 51
- 51
- 51
- 51
- 51
reciprocal_lattice:
- [  -0.18429553,   0.18429553,   0.18429553 ] # a*
- [   0.18429553,  -0.18429553,   0.18429553 ] # b*
- [   0.18429553,   0.18429553,  -0.18429553 ] # c*
natom: 2
lattice:
- [     0.000000000000000,     2.713033762910000,     2.713033762910000 ] # a
- [     2.713033762910000,     0.000000000000000,     2.713033762910000 ] # b
- [     2.713033762910000,     2.713033762910000,     0.000000000000000 ] # c
points:
- symbol: Si # 1
  coordinates: [  0.000000000000000,  0.000000000000000,  0.000000000000000 ]
  mass: 28.085000
- symbol: Si # 2
  coordinates: [  0.250000000000000,  0.250000000000000,  0.250000000000000 ]
  mass: 28.085000
supercell_matrix:
- [    1,    0,    0 ]
- [    0,    1,    0 ]
- [    0,    0,    1 ]

phonon:
- q-position: [    0.0000000,    0.0000000,    0.0000000 ]
  distance:    0.0000000
  label: '\Gamma'
  band:
  - # 1
    frequency:   -0.0000001923
  - # 2
    frequency:    0.0000001161
  - # 3
    frequency:    0.0000002257
  - # 4
    frequency:   15.7169502912
  - # 5
    frequency:   15.7169502912
  - # 6
    frequency:   15.7169502912

- q-position: [    0.0050000,    0.0000000,    0.0050000 ]
  distance:    0.0018430
  band:
  - # 1
    frequency:    0.1234393699
  - # 2
    frequency:    0.1234393699
  - # 3
    frequency:    0.1234393699
  - # 4
    frequency:   15.7164655434
  - # 5
    frequency:   15.7164655434
  - # 6
    frequency:   15.7164655434

- q-position: [    0.0100000,    0.0000000,    0.0100000 ]
  distance:    0.0036859
  band:
  - # 1
    frequency:    0.2468711254
  - # 2
    frequency:    0.2468711254
  - # 3
    frequency:    0.2468711254
  - # 4
    frequency:   15.7150113300
  - # 5
    frequency:   15.7150113300
  - # 6
    frequency:   15.7150113300

- q-position: [    0.0150000,    0.0000000,    0.0150000 ]
  distance:    0.0055289
  band:
  - # 1
    frequency:    0.3702876528
  - # 2
    frequency:    0.3702876528
  - # 3
    frequency:    0.3702876528
  - # 4
    frequency:   15.7125877407
  - # 5
    frequency:   15.7125877407
  - # 6
    frequency:   15.7125877407

- q-position: [    0.0200000,    0.0000000,    0.0200000 ]
  distance:    0.0073718
  band:
  - # 1
    frequency:    0.4936813390
  - # 2
    frequency:    0.4936813390
  - # 3
    frequency:    0.4936813390
  - # 4
    frequency:   15.7091949250
  - # 5
    frequency:   15.7091949250
  - # 6
    frequency:   15.7091949250

- q-position: [    0.0250000,    0.0000000,    0.0250000 ]
  distance:    0.0092148
  band:
  - # 1
    frequency:    0.6170445727
  - # 2
    frequency:    0.6170445727
  - # 3
    frequency:    0.6170445727
  - # 4
    frequency:   15.7048330921
  - # 5
    frequency:   15.7048330921
  - # 6
    frequency:   15.7048330921

- q-position: [    0.0300000,    0.0000000,    0.0300000 ]
  distance:    0.0110577
  band:
  - # 1
    frequency:    0.7403697442
  - # 2
    frequency:    0.7403697442
  - # 3
    frequency:    0.7403697442
  - # 4
    frequency:   15.6995025112
  - # 5
    frequency:   15.6995025112
  - # 6
    frequency:   15.6995025112

- q-position: [    0.0350000,    0.0000000,    0.0350000 ]
  distance:    0.0129007
  band:
  - # 1
    frequency:    0.8636492462
  - # 2
    frequency:    0.8636492462
  - # 3
    frequency:    0.8636492462
  - # 4
    frequency:   15.6932035109
  - # 5
    frequency:   15.6932035109
  - # 6
    frequency:   15.6932035109

- q-position: [    0.0400000,    0.0000000,    0.0400000 ]
  distance:    0.0147436
  band:
  - # 1
    frequency:    0.9868754742
  - # 2
    frequency:    0.9868754742
  - # 3
    frequency:    0.9868754742
  - # 4
    frequency:   15.6859364800
  - # 5
    frequency:   15.6859364800
  - # 6
    frequency:   15.6859364800

- q-position: [    0.0450000,    0.0000000,    0.0450000 ]
  distance:    0.0165866
  band:
  - # 1
    frequency:    1.1100408271
  - # 2
    frequency:    1.1100408271
  - # 3
    frequency:    1.1100408271
  - # 4
    frequency:   15.6777018666
  - # 5
    frequency:   15.6777018666
  - # 6
    frequency:   15.6777018666

- q-position: [    0.0500000,    0.0000000,    0.0500000 ]
  distance:    0.0184296
  band:
  - # 1
    frequency:    1.2331377074
  - # 2
    frequency:    1.2331377074
  - # 3
    frequency:    1.2331377074
  - # 4
    frequency:   15.6685001787
  - # 5
    frequency:   15.6685001787
  - # 6
    frequency:   15.6685001787

- q-position: [    0.0550000,    0.0000000,    0.0550000 ]
  distance:    0.0202725
  band:
  - # 1
    frequency:    1.3561585221
  - # 2
    frequency:    1.3561585221
  - # 3
    frequency:    1.3561585221
  - # 4
    frequency:   15.6583319839
  - # 5
    frequency:   15.6583319839
  - # 6
    frequency:   15.6583319839

- q-position: [    0.0600000,    0.0000000,    0.0600000 ]
  distance:    0.0221155
  band:
  - # 1
    frequency:    1.4790956824
  - # 2
    frequency:    1.4790956824
  - # 3
    frequency:    1.4790956824
  - # 4
    frequency:   15.6471979095
  - # 5
    frequency:   15.6471979095
  - # 6
    frequency:   15.6471979095

- q-position: [    0.0650000,    0.0000000,    0.0650000 ]
  distance:    0.0239584
  band:
  - # 1
    frequency:    1.6019416052
  - # 2
    frequency:    1.6019416052
  - # 3
    frequency:    1.6019416052
  - # 4
    frequency:   15.6350986421
  - # 5
    frequency:   15.6350986421
  - # 6
    frequency:   15.6350986421

- q-position: [    0.0700000,    0.0000000,    0.0700000 ]
  distance:    0.0258014
  band:
  - # 1
    frequency:    1.7246887127
  - # 2
    frequency:    1.7246887127
  - # 3
    frequency:    1.7246887127
  - # 4
    frequency:   15.6220349283
  - # 5
    frequency:   15.6220349283
  - # 6
    frequency:   15.6220349283

- q-position: [    0.0750000,    0.0000000,    0.0750000 ]
  distance:    0.0276443
  band:
  - # 1
    frequency:    1.8473294332
  - # 2
    frequency:    1.8473294332
  - # 3
    frequency:    1.8473294332
  - # 4
    frequency:   15.6080075737
  - # 5
    frequency:   15.6080075737
  - # 6
    frequency:   15.6080075737

- q-position: [    0.0800000,    0.0000000,    0.0800000 ]
  distance:    0.0294873
  band:
  - # 1
    frequency:    1.9698562018
  - # 2
    frequency:    1.9698562018
  - # 3
    frequency:    1.9698562018
  - # 4
    frequency:   15.5930174437
  - # 5
    frequency:   15.5930174437
  - # 6
    frequency:   15.5930174437

- q-position: [    0.0850000,    0.0000000,    0.0850000 ]
  distance:    0.0313302
  band:
  - # 1
    frequency:    2.0922614603
  - # 2
    frequency:    2.0922614603
  - # 3
    frequency:    2.0922614603
  - # 4
    frequency:   15.5770654630
  - # 5
    frequency:   15.5770654630
  - # 6
    frequency:   15.5770654630

- q-position: [    0.0900000,    0.0000000,    0.0900000 ]
  distance:    0.0331732
  band:
  - # 1
    frequency:    2.2145376583
  - # 2
    frequency:    2.2145376583
  - # 3
    frequency:    2.2145376583
  - # 4
    frequency:   15.5601526154
  - # 5
    frequency:   15.5601526154
  - # 6
    frequency:   15.5601526154

- q-position: [    0.0950000,    0.0000000,    0.0950000 ]
  distance:    0.0350162
  band:
  - # 1
    frequency:    2.3366772532
  - # 2
    frequency:    2.3366772532
  - # 3
    frequency:    2.3366772532
  - # 4
    frequency:   15.5422799444
  - # 5
    frequency:   15.5422799444
  - # 6
    frequency:   15.5422799444

- q-position: [    0.1000000,    0.0000000,    0.1000000 ]
  distance:    0.0368591
  band:
  - # 1
    frequency:    2.4586727109
  - # 2
    frequency:    2.4586727109
  - # 3
    frequency:    2.4586727109
  - # 4
    frequency:   15.5234485523
  - # 5
    frequency:   15.5234485523
  - # 6
    frequency:   15.5234485523

- q-position: [    0.1050000,    0.0000000,    0.1050000 ]
  distance:    0.0387021
  band:
  - # 1
    frequency:    2.5805165060
  - # 2
    frequency:    2.5805165060
  - # 3
    frequency:    2.5805165060
  - # 4
    frequency:   15.5036596008
  - # 5
    frequency:   15.5036596008
  - # 6
    frequency:   15.5036596008

- q-position: [    0.1100000,    0.0000000,    0.1100000 ]
  distance:    0.0405450
  band:
  - # 1
    frequency:    2.7022011227
  - # 2
    frequency:    2.7022011227
  - # 3
    frequency:    2.7022011227
  - # 4
    frequency:   15.4829143106
  - # 5
    frequency:   15.4829143106
  - # 6
    frequency:   15.4829143106

- q-position: [    0.1150000,    0.0000000,    0.1150000 ]
  distance:    0.0423880
  band:
  - # 1
    frequency:    2.8237190549
  - # 2
    frequency:    2.8237190549
  - # 3
    frequency:    2.8237190549
  - # 4
    frequency:   15.4612139612
  - # 5
    frequency:   15.4612139612
  - # 6
    frequency:   15.4612139612

- q-position: [    0.1200000,    0.0000000,    0.1200000 ]
  distance:    0.0442309
  band:
  - # 1
    frequency:    2.9450628068
  - # 2
    frequency:    2.9450628068
  - # 3
    frequency:    2.9450628068
  - # 4
    frequency:   15.4385598914
  - # 5
    frequency:   15.4385598914
  - # 6
    frequency:   15.4385598914

- q-position: [    0.1250000,    0.0000000,    0.1250000 ]
  distance:    0.0460739
  band:
  - # 1
    frequency:    3.0662248934
  - # 2
    frequency:    3.0662248934
  - # 3
    frequency:    3.0662248934
  - # 4
    frequency:   15.4149534984
  - # 5
    frequency:   15.4149534984
  - # 6
    frequency:   15.4149534984

- q-position: [    0.1300000,    0.0000000,    0.1300000 ]
  distance:    0.0479168
  band:
  - # 1
    frequency:    3.1871978408
  - # 2
    frequency:    3.1871978408
  - # 3
    frequency:    3.1871978408
  - # 4
    frequency:   15.3903962385
  - # 5
    frequency:   15.3903962385
  - # 6
    frequency:   15.3903962385

- q-position: [    0.1350000,    0.0000000,    0.1350000 ]
  distance:    0.0497598
  band:
  - # 1
    frequency:    3.3079741868
  - # 2
    frequency:    3.3079741868
  - # 3
    frequency:    3.3079741868
  - # 4
    frequency:   15.3648896265
  - # 5
    frequency:   15.3648896265
  - # 6
    frequency:   15.3648896265

- q-position: [    0.1400000,    0.0000000,    0.1400000 ]
  distance:    0.0516027
  band:
  - # 1
    frequency:    3.4285464814
  - # 2
    frequency:    3.4285464814
  - # 3
    frequency:    3.4285464814
  - # 4
    frequency:   15.3384352357
  - # 5
    frequency:   15.3384352357
  - # 6
    frequency:   15.3384352357

- q-position: [    0.1450000,    0.0000000,    0.1450000 ]
  distance:    0.0534457
  band:
  - # 1
    frequency:    3.5489072871
  - # 2
    frequency:    3.5489072871
  - # 3
    frequency:    3.5489072871
  - # 4
    frequency:   15.3110346980
  - # 5
    frequency:   15.3110346980
  - # 6
    frequency:   15.3110346980

- q-position: [    0.1500000,    0.0000000,    0.1500000 ]
  distance:    0.0552887
  band:
  - # 1
    frequency:    3.6690491794
  - # 2
    frequency:    3.6690491794
  - # 3
    frequency:    3.6690491794
  - # 4
    frequency:   15.2826897035
  - # 5
    frequency:   15.2826897035
  - # 6
    frequency:   15.2826897035

- q-position: [    0.1550000,    0.0000000,    0.1550000 ]
  distance:    0.0571316
  band:
  - # 1
    frequency:    3.7889647476
  - # 2
    frequency:    3.7889647476
  - # 3
    frequency:    3.7889647476
  - # 4
    frequency:   15.2534020008
  - # 5
    frequency:   15.2534020008
  - # 6
    frequency:   15.2534020008

- q-position: [    0.1600000,    0.0000000,    0.1600000 ]
  distance:    0.0589746
  band:
  - # 1
    frequency:    3.9086465945
  - # 2
    frequency:    3.9086465945
  - # 3
    frequency:    3.9086465945
  - # 4
    frequency:   15.2231733964
  - # 5
    frequency:   15.2231733964
  - # 6
    frequency:   15.2231733964

- q-position: [    0.1650000,    0.0000000,    0.1650000 ]
  distance:    0.0608175
  band:
  - # 1
    frequency:    4.0280873377
  - # 2
    frequency:    4.0280873377
  - # 3
    frequency:    4.0280873377
  - # 4
    frequency:   15.1920057549
  - # 5
    frequency:   15.1920057549
  - # 6
    frequency:   15.1920057549

- q-position: [    0.1700000,    0.0000000,    0.1700000 ]
  distance:    0.0626605
  band:
  - # 1
    frequency:    4.1472796095
  - # 2
    frequency:    4.1472796095
  - # 3
    frequency:    4.1472796095
  - # 4
    frequency:   15.1599009989
  - # 5
    frequency:   15.1599009989
  - # 6
    frequency:   15.1599009989

- q-position: [    0.1750000,    0.0000000,    0.1750000 ]
  distance:    0.0645034
  band:
  - # 1
    frequency:    4.2662160575
  - # 2
    frequency:    4.2662160575
  - # 3
    frequency:    4.2662160575
  - # 4
    frequency:   15.1268611088
  - # 5
    frequency:   15.1268611088
  - # 6
    frequency:   15.1268611088

- q-position: [    0.1800000,    0.0000000,    0.1800000 ]
  distance:    0.0663464
  band:
  - # 1
    frequency:    4.3848893453
  - # 2
    frequency:    4.3848893453
  - # 3
    frequency:    4.3848893453
  - # 4
    frequency:   15.0928881227
  - # 5
    frequency:   15.0928881227
  - # 6
    frequency:   15.0928881227

- q-position: [    0.1850000,    0.0000000,    0.1850000 ]
  distance:    0.0681893
  band:
  - # 1
    frequency:    4.5032921524
  - # 2
    frequency:    4.5032921524
  - # 3
    frequency:    4.5032921524
  - # 4
    frequency:   15.0579841362
  - # 5
    frequency:   15.0579841362
  - # 6
    frequency:   15.0579841362

- q-position: [    0.1900000,    0.0000000,    0.1900000 ]
  distance:    0.0700323
  band:
  - # 1
    frequency:    4.6214171753
  - # 2
    frequency:    4.6214171753
  - # 3
    frequency:    4.6214171753
  - # 4
    frequency:   15.0221513023
  - # 5
    frequency:   15.0221513023
  - # 6
    frequency:   15.0221513023

- q-position: [    0.1950000,    0.0000000,    0.1950000 ]
  distance:    0.0718753
  band:
  - # 1
    frequency:    4.7392571274
  - # 2
    frequency:    4.7392571274
  - # 3
    frequency:    4.7392571274
  - # 4
    frequency:   14.9853918313
  - # 5
    frequency:   14.9853918313
  - # 6
    frequency:   14.9853918313

- q-position: [    0.2000000,    0.0000000,    0.2000000 ]
  distance:    0.0737182
  band:
  - # 1
    frequency:    4.8568047397
  - # 2
    frequency:    4.8568047397
  - # 3
    frequency:    4.8568047397
  - # 4
    frequency:   14.9477079907
  - # 5
    frequency:   14.9477079907
  - # 6
    frequency:   14.9477079907

- q-position: [    0.2050000,    0.0000000,    0.2050000 ]
  distance:    0.0755612
  band:
  - # 1
    frequency:    4.9740527615
  - # 2
    frequency:    4.9740527615
  - # 3
    frequency:    4.9740527615
  - # 4
    frequency:   14.9091021052
  - # 5
    frequency:   14.9091021052
  - # 6
    frequency:   14.9091021052

- q-position: [    0.2100000,    0.0000000,    0.2100000 ]
  distance:    0.0774041
  band:
  - # 1
    frequency:    5.0909939603
  - # 2
    frequency:    5.0909939603
  - # 3
    frequency:    5.0909939603
  - # 4
    frequency:   14.8695765559
  - # 5
    frequency:   14.8695765559
  - # 6
    frequency:   14.8695765559

- q-position: [    0.2150000,    0.0000000,    0.2150000 ]
  distance:    0.0792471
  band:
  - # 1
    frequency:    5.2076211226
  - # 2
    frequency:    5.2076211226
  - # 3
    frequency:    5.2076211226
  - # 4
    frequency:   14.8291337812
  - # 5
    frequency:   14.8291337812
  - # 6
    frequency:   14.8291337812

- q-position: [    0.2200000,    0.0000000,    0.2200000 ]
  distance:    0.0810900
  band:
  - # 1
    frequency:    5.3239270542
  - # 2
    frequency:    5.3239270542
  - # 3
    frequency:    5.3239270542
  - # 4
    frequency:   14.7877762756
  - # 5
    frequency:   14.7877762756
  - # 6
    frequency:   14.7877762756

- q-position: [    0.2250000,    0.0000000,    0.2250000 ]
  distance:    0.0829330
  band:
  - # 1
    frequency:    5.4399045810
  - # 2
    frequency:    5.4399045810
  - # 3
    frequency:    5.4399045810
  - # 4
    frequency:   14.7455065903
  - # 5
    frequency:   14.7455065903
  - # 6
    frequency:   14.7455065903

- q-position: [    0.2300000,    0.0000000,    0.2300000 ]
  distance:    0.0847759
  band:
  - # 1
    frequency:    5.5555465489
  - # 2
    frequency:    5.5555465489
  - # 3
    frequency:    5.5555465489
  - # 4
    frequency:   14.7023273328
  - # 5
    frequency:   14.7023273328
  - # 6
    frequency:   14.7023273328

- q-position: [    0.2350000,    0.0000000,    0.2350000 ]
  distance:    0.0866189
  band:
  - # 1
    frequency:    5.6708458244
  - # 2
    frequency:    5.6708458244
  - # 3
    frequency:    5.6708458244
  - # 4
    frequency:   14.6582411664
  - # 5
    frequency:   14.6582411664
  - # 6
    frequency:   14.6582411664

- q-position: [    0.2400000,    0.0000000,    0.2400000 ]
  distance:    0.0884619
  band:
  - # 1
    frequency:    5.7857952955
  - # 2
    frequency:    5.7857952955
  - # 3
    frequency:    5.7857952955
  - # 4
    frequency:   14.6132508106
  - # 5
    frequency:   14.6132508106
  - # 6
    frequency:   14.6132508106

- q-position: [    0.2450000,    0.0000000,    0.2450000 ]
  distance:    0.0903048
  band:
  - # 1
    frequency:    5.9003878715
  - # 2
    frequency:    5.9003878715
  - # 3
    frequency:    5.9003878715
  - # 4
    frequency:   14.5673590407
  - # 5
    frequency:   14.5673590407
  - # 6
    frequency:   14.5673590407

- q-position: [    0.2500000,    0.0000000,    0.2500000 ]
  distance:    0.0921478
  label: '\Delta'
  band:
  - # 1
    frequency:    6.0146164837
  - # 2
    frequency:    6.0146164837
  - # 3
    frequency:    6.0146164837
  - # 4
    frequency:   14.5205686875
  - # 5
    frequency:   14.5205686875
  - # 6
    frequency:   14.5205686875

- q-position: [    0.2500000,    0.0000000,    0.2500000 ]
  distance:    0.0921478
  label: '\Delta'
  band:
  - # 1
    frequency:    6.0146164837
  - # 2
    frequency:    6.0146164837
  - # 3
    frequency:    6.0146164837
  - # 4
    frequency:   14.5205686875
  - # 5
    frequency:   14.5205686875
  - # 6
    frequency:   14.5205686875

- q-position: [    0.2550000,    0.0000000,    0.2550000 ]
  distance:    0.0939907
  band:
  - # 1
    frequency:    6.1284740861
  - # 2
    frequency:    6.1284740861
  - # 3
    frequency:    6.1284740861
  - # 4
    frequency:   14.4728826373
  - # 5
    frequency:   14.4728826373
  - # 6
    frequency:   14.4728826373

- q-position: [    0.2600000,    0.0000000,    0.2600000 ]
  distance:    0.0958337
  band:
  - # 1
    frequency:    6.2419536554
  - # 2
    frequency:    6.2419536554
  - # 3
    frequency:    6.2419536554
  - # 4
    frequency:   14.4243038314
  - # 5
    frequency:   14.4243038314
  - # 6
    frequency:   14.4243038314

- q-position: [    0.2650000,    0.0000000,    0.2650000 ]
  distance:    0.0976766
  band:
  - # 1
    frequency:    6.3550481915
  - # 2
    frequency:    6.3550481915
  - # 3
    frequency:    6.3550481915
  - # 4
    frequency:   14.3748352665
  - # 5
    frequency:   14.3748352665
  - # 6
    frequency:   14.3748352665

- q-position: [    0.2700000,    0.0000000,    0.2700000 ]
  distance:    0.0995196
  band:
  - # 1
    frequency:    6.4677507183
  - # 2
    frequency:    6.4677507183
  - # 3
    frequency:    6.4677507183
  - # 4
    frequency:   14.3244799941
  - # 5
    frequency:   14.3244799941
  - # 6
    frequency:   14.3244799941

- q-position: [    0.2750000,    0.0000000,    0.2750000 ]
  distance:    0.1013625
  band:
  - # 1
    frequency:    6.5800542838
  - # 2
    frequency:    6.5800542838
  - # 3
    frequency:    6.5800542838
  - # 4
    frequency:   14.2732411203
  - # 5
    frequency:   14.2732411203
  - # 6
    frequency:   14.2732411203

- q-position: [    0.2800000,    0.0000000,    0.2800000 ]
  distance:    0.1032055
  band:
  - # 1
    frequency:    6.6919519605
  - # 2
    frequency:    6.6919519605
  - # 3
    frequency:    6.6919519605
  - # 4
    frequency:   14.2211218057
  - # 5
    frequency:   14.2211218057
  - # 6
    frequency:   14.2211218057

- q-position: [    0.2850000,    0.0000000,    0.2850000 ]
  distance:    0.1050485
  band:
  - # 1
    frequency:    6.8034368462
  - # 2
    frequency:    6.8034368462
  - # 3
    frequency:    6.8034368462
  - # 4
    frequency:   14.1681252654
  - # 5
    frequency:   14.1681252654
  - # 6
    frequency:   14.1681252654

- q-position: [    0.2900000,    0.0000000,    0.2900000 ]
  distance:    0.1068914
  band:
  - # 1
    frequency:    6.9145020638
  - # 2
    frequency:    6.9145020638
  - # 3
    frequency:    6.9145020638
  - # 4
    frequency:   14.1142547684
  - # 5
    frequency:   14.1142547684
  - # 6
    frequency:   14.1142547684

- q-position: [    0.2950000,    0.0000000,    0.2950000 ]
  distance:    0.1087344
  band:
  - # 1
    frequency:    7.0251407623
  - # 2
    frequency:    7.0251407623
  - # 3
    frequency:    7.0251407623
  - # 4
    frequency:   14.0595136376
  - # 5
    frequency:   14.0595136376
  - # 6
    frequency:   14.0595136376

- q-position: [    0.3000000,    0.0000000,    0.3000000 ]
  distance:    0.1105773
  band:
  - # 1
    frequency:    7.1353461171
  - # 2
    frequency:    7.1353461171
  - # 3
    frequency:    7.1353461171
  - # 4
    frequency:   14.0039052498
  - # 5
    frequency:   14.0039052498
  - # 6
    frequency:   14.0039052498

- q-position: [    0.3050000,    0.0000000,    0.3050000 ]
  distance:    0.1124203
  band:
  - # 1
    frequency:    7.2451113301
  - # 2
    frequency:    7.2451113301
  - # 3
    frequency:    7.2451113301
  - # 4
    frequency:   13.9474330352
  - # 5
    frequency:   13.9474330352
  - # 6
    frequency:   13.9474330352

- q-position: [    0.3100000,    0.0000000,    0.3100000 ]
  distance:    0.1142632
  band:
  - # 1
    frequency:    7.3544296305
  - # 2
    frequency:    7.3544296305
  - # 3
    frequency:    7.3544296305
  - # 4
    frequency:   13.8901004772
  - # 5
    frequency:   13.8901004772
  - # 6
    frequency:   13.8901004772

- q-position: [    0.3150000,    0.0000000,    0.3150000 ]
  distance:    0.1161062
  band:
  - # 1
    frequency:    7.4632942751
  - # 2
    frequency:    7.4632942751
  - # 3
    frequency:    7.4632942751
  - # 4
    frequency:   13.8319111123
  - # 5
    frequency:   13.8319111123
  - # 6
    frequency:   13.8319111123

- q-position: [    0.3200000,    0.0000000,    0.3200000 ]
  distance:    0.1179491
  band:
  - # 1
    frequency:    7.5716985485
  - # 2
    frequency:    7.5716985485
  - # 3
    frequency:    7.5716985485
  - # 4
    frequency:   13.7728685301
  - # 5
    frequency:   13.7728685301
  - # 6
    frequency:   13.7728685301

- q-position: [    0.3250000,    0.0000000,    0.3250000 ]
  distance:    0.1197921
  band:
  - # 1
    frequency:    7.6796357638
  - # 2
    frequency:    7.6796357638
  - # 3
    frequency:    7.6796357638
  - # 4
    frequency:   13.7129763724
  - # 5
    frequency:   13.7129763724
  - # 6
    frequency:   13.7129763724

- q-position: [    0.3300000,    0.0000000,    0.3300000 ]
  distance:    0.1216351
  band:
  - # 1
    frequency:    7.7870992631
  - # 2
    frequency:    7.7870992631
  - # 3
    frequency:    7.7870992631
  - # 4
    frequency:   13.6522383338
  - # 5
    frequency:   13.6522383338
  - # 6
    frequency:   13.6522383338

- q-position: [    0.3350000,    0.0000000,    0.3350000 ]
  distance:    0.1234780
  band:
  - # 1
    frequency:    7.8940824174
  - # 2
    frequency:    7.8940824174
  - # 3
    frequency:    7.8940824174
  - # 4
    frequency:   13.5906581608
  - # 5
    frequency:   13.5906581608
  - # 6
    frequency:   13.5906581608

- q-position: [    0.3400000,    0.0000000,    0.3400000 ]
  distance:    0.1253210
  band:
  - # 1
    frequency:    8.0005786275
  - # 2
    frequency:    8.0005786275
  - # 3
    frequency:    8.0005786275
  - # 4
    frequency:   13.5282396520
  - # 5
    frequency:   13.5282396520
  - # 6
    frequency:   13.5282396520

- q-position: [    0.3450000,    0.0000000,    0.3450000 ]
  distance:    0.1271639
  band:
  - # 1
    frequency:    8.1065813242
  - # 2
    frequency:    8.1065813242
  - # 3
    frequency:    8.1065813242
  - # 4
    frequency:   13.4649866576
  - # 5
    frequency:   13.4649866576
  - # 6
    frequency:   13.4649866576

- q-position: [    0.3500000,    0.0000000,    0.3500000 ]
  distance:    0.1290069
  band:
  - # 1
    frequency:    8.2120839689
  - # 2
    frequency:    8.2120839689
  - # 3
    frequency:    8.2120839689
  - # 4
    frequency:   13.4009030794
  - # 5
    frequency:   13.4009030794
  - # 6
    frequency:   13.4009030794

- q-position: [    0.3550000,    0.0000000,    0.3550000 ]
  distance:    0.1308498
  band:
  - # 1
    frequency:    8.3170800535
  - # 2
    frequency:    8.3170800535
  - # 3
    frequency:    8.3170800535
  - # 4
    frequency:   13.3359928704
  - # 5
    frequency:   13.3359928704
  - # 6
    frequency:   13.3359928704

- q-position: [    0.3600000,    0.0000000,    0.3600000 ]
  distance:    0.1326928
  band:
  - # 1
    frequency:    8.4215631014
  - # 2
    frequency:    8.4215631014
  - # 3
    frequency:    8.4215631014
  - # 4
    frequency:   13.2702600346
  - # 5
    frequency:   13.2702600346
  - # 6
    frequency:   13.2702600346

- q-position: [    0.3650000,    0.0000000,    0.3650000 ]
  distance:    0.1345357
  band:
  - # 1
    frequency:    8.5255266676
  - # 2
    frequency:    8.5255266676
  - # 3
    frequency:    8.5255266676
  - # 4
    frequency:   13.2037086266
  - # 5
    frequency:   13.2037086266
  - # 6
    frequency:   13.2037086266

- q-position: [    0.3700000,    0.0000000,    0.3700000 ]
  distance:    0.1363787
  band:
  - # 1
    frequency:    8.6289643392
  - # 2
    frequency:    8.6289643392
  - # 3
    frequency:    8.6289643392
  - # 4
    frequency:   13.1363427516
  - # 5
    frequency:   13.1363427516
  - # 6
    frequency:   13.1363427516

- q-position: [    0.3750000,    0.0000000,    0.3750000 ]
  distance:    0.1382216
  band:
  - # 1
    frequency:    8.7318697356
  - # 2
    frequency:    8.7318697356
  - # 3
    frequency:    8.7318697356
  - # 4
    frequency:   13.0681665652
  - # 5
    frequency:   13.0681665652
  - # 6
    frequency:   13.0681665652

- q-position: [    0.3800000,    0.0000000,    0.3800000 ]
  distance:    0.1400646
  band:
  - # 1
    frequency:    8.8342365092
  - # 2
    frequency:    8.8342365092
  - # 3
    frequency:    8.8342365092
  - # 4
    frequency:   12.9991842727
  - # 5
    frequency:   12.9991842727
  - # 6
    frequency:   12.9991842727

- q-position: [    0.3850000,    0.0000000,    0.3850000 ]
  distance:    0.1419076
  band:
  - # 1
    frequency:    8.9360583455
  - # 2
    frequency:    8.9360583455
  - # 3
    frequency:    8.9360583455
  - # 4
    frequency:   12.9294001293
  - # 5
    frequency:   12.9294001293
  - # 6
    frequency:   12.9294001293

- q-position: [    0.3900000,    0.0000000,    0.3900000 ]
  distance:    0.1437505
  band:
  - # 1
    frequency:    9.0373289635
  - # 2
    frequency:    9.0373289635
  - # 3
    frequency:    9.0373289635
  - # 4
    frequency:   12.8588184395
  - # 5
    frequency:   12.8588184395
  - # 6
    frequency:   12.8588184395

- q-position: [    0.3950000,    0.0000000,    0.3950000 ]
  distance:    0.1455935
  band:
  - # 1
    frequency:    9.1380421166
  - # 2
    frequency:    9.1380421166
  - # 3
    frequency:    9.1380421166
  - # 4
    frequency:   12.7874435573
  - # 5
    frequency:   12.7874435573
  - # 6
    frequency:   12.7874435573

- q-position: [    0.4000000,    0.0000000,    0.4000000 ]
  distance:    0.1474364
  band:
  - # 1
    frequency:    9.2381915922
  - # 2
    frequency:    9.2381915922
  - # 3
    frequency:    9.2381915922
  - # 4
    frequency:   12.7152798853
  - # 5
    frequency:   12.7152798853
  - # 6
    frequency:   12.7152798853

- q-position: [    0.4050000,    0.0000000,    0.4050000 ]
  distance:    0.1492794
  band:
  - # 1
    frequency:    9.3377712126
  - # 2
    frequency:    9.3377712126
  - # 3
    frequency:    9.3377712126
  - # 4
    frequency:   12.6423318750
  - # 5
    frequency:   12.6423318750
  - # 6
    frequency:   12.6423318750

- q-position: [    0.4100000,    0.0000000,    0.4100000 ]
  distance:    0.1511223
  band:
  - # 1
    frequency:    9.4367748353
  - # 2
    frequency:    9.4367748353
  - # 3
    frequency:    9.4367748353
  - # 4
    frequency:   12.5686040261
  - # 5
    frequency:   12.5686040261
  - # 6
    frequency:   12.5686040261

- q-position: [    0.4150000,    0.0000000,    0.4150000 ]
  distance:    0.1529653
  band:
  - # 1
    frequency:    9.5351963532
  - # 2
    frequency:    9.5351963532
  - # 3
    frequency:    9.5351963532
  - # 4
    frequency:   12.4941008865
  - # 5
    frequency:   12.4941008865
  - # 6
    frequency:   12.4941008865

- q-position: [    0.4200000,    0.0000000,    0.4200000 ]
  distance:    0.1548082
  band:
  - # 1
    frequency:    9.6330296954
  - # 2
    frequency:    9.6330296954
  - # 3
    frequency:    9.6330296954
  - # 4
    frequency:   12.4188270518
  - # 5
    frequency:   12.4188270518
  - # 6
    frequency:   12.4188270518

- q-position: [    0.4250000,    0.0000000,    0.4250000 ]
  distance:    0.1566512
  band:
  - # 1
    frequency:    9.7302688269
  - # 2
    frequency:    9.7302688269
  - # 3
    frequency:    9.7302688269
  - # 4
    frequency:   12.3427871655
  - # 5
    frequency:   12.3427871655
  - # 6
    frequency:   12.3427871655

- q-position: [    0.4300000,    0.0000000,    0.4300000 ]
  distance:    0.1584942
  band:
  - # 1
    frequency:    9.8269077496
  - # 2
    frequency:    9.8269077496
  - # 3
    frequency:    9.8269077496
  - # 4
    frequency:   12.2659859179
  - # 5
    frequency:   12.2659859179
  - # 6
    frequency:   12.2659859179

- q-position: [    0.4350000,    0.0000000,    0.4350000 ]
  distance:    0.1603371
  band:
  - # 1
    frequency:    9.9229405023
  - # 2
    frequency:    9.9229405023
  - # 3
    frequency:    9.9229405023
  - # 4
    frequency:   12.1884280465
  - # 5
    frequency:   12.1884280465
  - # 6
    frequency:   12.1884280465
