# remapped force constants from FORCE_CONSTANTS, shape [(12, 12)]
1.481588545954938851e+01 4.234346428858590250e-01 -4.234346428858610234e-01 7.650745950354780334e-01 3.997516458681310003e-01 -3.997516458681310003e-01 -1.222917167533714000e+01 -2.601473713052632863e+00 2.601473713052635084e+00 -3.351788379247703009e+00 1.778287424298643948e+00 -1.778287424298643948e+00
4.234346428858580258e-01 1.481588545954939917e+01 4.234346428858529743e-01 3.997516458681310003e-01 7.650745950354790326e-01 3.997516458681310003e-01 -2.601473713052635084e+00 -1.222917167533714533e+01 -2.601473713052630199e+00 1.778287424298647057e+00 -3.351788379247707006e+00 1.778287424298647057e+00
-4.234346428858620226e-01 4.234346428858620226e-01 1.481588545954938674e+01 -3.997516458681310003e-01 3.997516458681310003e-01 7.650745950354790326e-01 2.601473713052634196e+00 -2.601473713052635084e+00 -1.222917167533714000e+01 -1.778287424298643948e+00 1.778287424298643948e+00 -3.351788379247703009e+00
7.650745950354780334e-01 3.997516458681310003e-01 -3.997516458681310003e-01 1.481588545954938851e+01 4.234346428858590250e-01 -4.234346428858610234e-01 -3.351788379247703009e+00 1.778287424298643948e+00 -1.778287424298643948e+00 -1.222917167533714000e+01 -2.601473713052632863e+00 2.601473713052635084e+00
3.997516458681310003e-01 7.650745950354790326e-01 3.997516458681310003e-01 4.234346428858580258e-01 1.481588545954939917e+01 4.234346428858529743e-01 1.778287424298647057e+00 -3.351788379247707006e+00 1.778287424298647057e+00 -2.601473713052635084e+00 -1.222917167533714533e+01 -2.601473713052630199e+00
-3.997516458681310003e-01 3.997516458681310003e-01 7.650745950354790326e-01 -4.234346428858620226e-01 4.234346428858620226e-01 1.481588545954938674e+01 -1.778287424298643948e+00 1.778287424298643948e+00 -3.351788379247703009e+00 2.601473713052634196e+00 -2.601473713052635084e+00 -1.222917167533714000e+01
-1.222917167533714533e+01 -2.601473713052635084e+00 2.601473713052630199e+00 -3.351788379247707006e+00 1.778287424298647057e+00 -1.778287424298647057e+00 1.481588545954939917e+01 4.234346428858570266e-01 -4.234346428858529743e-01 7.650745950354790326e-01 3.997516458681310003e-01 -3.997516458681310003e-01
-2.601473713052632863e+00 -1.222917167533714000e+01 -2.601473713052635084e+00 1.778287424298643948e+00 -3.351788379247703009e+00 1.778287424298643948e+00 4.234346428858590250e-01 1.481588545954938851e+01 4.234346428858610234e-01 3.997516458681310003e-01 7.650745950354780334e-01 3.997516458681310003e-01
2.601473713052635084e+00 -2.601473713052634196e+00 -1.222917167533714000e+01 -1.778287424298643948e+00 1.778287424298643948e+00 -3.351788379247703009e+00 -4.234346428858620226e-01 4.234346428858620226e-01 1.481588545954938674e+01 -3.997516458681310003e-01 3.997516458681310003e-01 7.650745950354790326e-01
-3.351788379247707006e+00 1.778287424298647057e+00 -1.778287424298647057e+00 -1.222917167533714533e+01 -2.601473713052635084e+00 2.601473713052630199e+00 7.650745950354790326e-01 3.997516458681310003e-01 -3.997516458681310003e-01 1.481588545954939917e+01 4.234346428858570266e-01 -4.234346428858529743e-01
1.778287424298643948e+00 -3.351788379247703009e+00 1.778287424298643948e+00 -2.601473713052632863e+00 -1.222917167533714000e+01 -2.601473713052635084e+00 3.997516458681310003e-01 7.650745950354780334e-01 3.997516458681310003e-01 4.234346428858590250e-01 1.481588545954938851e+01 4.234346428858610234e-01
-1.778287424298643948e+00 1.778287424298643948e+00 -3.351788379247703009e+00 2.601473713052635084e+00 -2.601473713052634196e+00 -1.222917167533714000e+01 -3.997516458681310003e-01 3.997516458681310003e-01 7.650745950354790326e-01 -4.234346428858620226e-01 4.234346428858620226e-01 1.481588545954938674e+01
