  10  160
1 1
    13.881096586064601     0.000000000000000     1.309406876079530
     0.000000000000000    16.277477984324999     0.000000000000000
     1.309406876079700     0.000000000000000    11.535896480119799
1 2
     0.000000000000000     0.000000000000000     0.000000000000000
     0.000000000000000     0.000000000000000     0.000000000000000
     0.000000000000000     0.000000000000000     0.000000000000000
1 3
     0.755302190050339    -0.027689507708835    -0.293630079650558
     0.027689507708835    -3.658981651747570    -0.246833767353233
    -0.293630079650558     0.246833767353233     2.340765011655450
1 4
     0.000000000000000     0.000000000000000     0.000000000000000
     0.000000000000000     0.000000000000000     0.000000000000000
     0.000000000000000     0.000000000000000     0.000000000000000
1 5
     0.000000000000000     0.000000000000000     0.000000000000000
     0.000000000000000     0.000000000000000     0.000000000000000
     0.000000000000000     0.000000000000000     0.000000000000000
1 6
     0.000000000000000     0.000000000000000     0.000000000000000
     0.000000000000000     0.000000000000000     0.000000000000000
     0.000000000000000     0.000000000000000     0.000000000000000
1 7
     0.755302190050339     0.027689507708835    -0.293630079650558
    -0.027689507708835    -3.658981651747570     0.246833767353233
    -0.293630079650558    -0.246833767353233     2.340765011655450
1 8
     0.000000000000000     0.000000000000000     0.000000000000000
     0.000000000000000     0.000000000000000     0.000000000000000
     0.000000000000000     0.000000000000000     0.000000000000000
1 9
     0.000000000000000     0.000000000000000     0.000000000000000
     0.000000000000000     0.000000000000000     0.000000000000000
     0.000000000000000     0.000000000000000     0.000000000000000
1 10
     0.000000000000000     0.000000000000000     0.000000000000000
     0.000000000000000     0.000000000000000     0.000000000000000
     0.000000000000000     0.000000000000000     0.000000000000000
1 11
     0.000000000000000     0.000000000000000     0.000000000000000
     0.000000000000000     0.000000000000000     0.000000000000000
     0.000000000000000     0.000000000000000     0.000000000000000
1 12
     0.000000000000000     0.000000000000000     0.000000000000000
     0.000000000000000     0.000000000000000     0.000000000000000
     0.000000000000000     0.000000000000000     0.000000000000000
1 13
     0.000000000000000     0.000000000000000     0.000000000000000
     0.000000000000000     0.000000000000000     0.000000000000000
     0.000000000000000     0.000000000000000     0.000000000000000
1 14
     0.000000000000000     0.000000000000000     0.000000000000000
     0.000000000000000     0.000000000000000     0.000000000000000
     0.000000000000000     0.000000000000000     0.000000000000000
1 15
     0.000000000000000     0.000000000000000     0.000000000000000
     0.000000000000000     0.000000000000000     0.000000000000000
     0.000000000000000     0.000000000000000     0.000000000000000
1 16
     0.000000000000000     0.000000000000000     0.000000000000000
     0.000000000000000     0.000000000000000     0.000000000000000
     0.000000000000000     0.000000000000000     0.000000000000000
1 17
    -0.359056393477252     0.000000000000000     0.228047084682536
     0.000000000000000     0.070277412327188     0.000000000000000
     0.228047084682536     0.000000000000000     0.148064527856935
1 18
     0.378316861652315    -1.731951313870650    -1.637442837503040
    -1.731951313870650     0.260781257963705    -0.984385347608532
    -1.637442837503040    -0.984385347608532    -0.894780944143288
1 19
     0.000000000000000     0.000000000000000     0.000000000000000
     0.000000000000000     0.000000000000000     0.000000000000000
     0.000000000000000     0.000000000000000     0.000000000000000
1 20
     0.164218217400123    -0.043895891378263    -0.048016558899845
    -0.043895891378263    -0.339622052248841    -0.122189551182563
    -0.048016558899845    -0.122189551182563     0.049740003006645
1 21
     0.000000000000000     0.000000000000000     0.000000000000000
     0.000000000000000     0.000000000000000     0.000000000000000
     0.000000000000000     0.000000000000000     0.000000000000000
1 22
     0.164218217400123     0.043895891378263    -0.048016558899845
     0.043895891378263    -0.339622052248841     0.122189551182563
    -0.048016558899845     0.122189551182563     0.049740003006645
1 23
     0.000000000000000     0.000000000000000     0.000000000000000
     0.000000000000000     0.000000000000000     0.000000000000000
     0.000000000000000     0.000000000000000     0.000000000000000
1 24
     0.378316861652315     1.731951313870650    -1.637442837503040
     1.731951313870650     0.260781257963705     0.984385347608532
    -1.637442837503040     0.984385347608532    -0.894780944143288
1 25
    -0.105580949864669     0.000000000000000    -0.503079723741704
     0.000000000000000     0.129289219034215     0.000000000000000
    -0.503079723741704     0.000000000000000    -0.164301762903926
1 26
    -0.076428067443652    -0.180990055575558     0.191173589324266
    -0.180990055575558     0.127836809444783     0.087152604089160
     0.191173589324266     0.087152604089160    -0.202564152722944
1 27
     0.112135417480215     0.227165952770451    -0.182890025300600
     0.227165952770451    -0.022320024680134     0.086108437428996
    -0.182890025300600     0.086108437428996    -0.113952191619557
1 28
     0.000000000000000     0.000000000000000     0.000000000000000
     0.000000000000000     0.000000000000000     0.000000000000000
     0.000000000000000     0.000000000000000     0.000000000000000
1 29
     0.000000000000000     0.000000000000000     0.000000000000000
     0.000000000000000     0.000000000000000     0.000000000000000
     0.000000000000000     0.000000000000000     0.000000000000000
1 30
     0.000000000000000     0.000000000000000     0.000000000000000
     0.000000000000000     0.000000000000000     0.000000000000000
     0.000000000000000     0.000000000000000     0.000000000000000
1 31
     0.112135417480215    -0.227165952770451    -0.182890025300600
    -0.227165952770451    -0.022320024680134    -0.086108437428996
    -0.182890025300600    -0.086108437428996    -0.113952191619557
1 32
    -0.076428067443652     0.180990055575558     0.191173589324266
     0.180990055575558     0.127836809444783    -0.087152604089160
     0.191173589324266    -0.087152604089160    -0.202564152722944
1 33
    -0.365657502015329     0.000000000000000    -0.162581256939070
     0.000000000000000     0.075855339158844     0.000000000000000
    -0.163005727274723     0.000000000000000    -0.053547654459152
1 34
     0.085220132525777     0.500688947272834     0.648826585305136
     1.382536937951760     0.302189630735830    -1.138913549553840
     1.188382348996510    -0.406390962448045    -1.312984948509990
1 35
     0.000000000000000     0.000000000000000     0.000000000000000
     0.000000000000000     0.000000000000000     0.000000000000000
     0.000000000000000     0.000000000000000     0.000000000000000
1 36
     0.067816225350438    -0.031703143669242     0.045075810301450
     0.038680982027549    -0.224320603547400    -0.111865484931622
     0.021223599190929    -0.216884238411841    -0.076584348200252
1 37
     0.000000000000000     0.000000000000000     0.000000000000000
     0.000000000000000     0.000000000000000     0.000000000000000
     0.000000000000000     0.000000000000000     0.000000000000000
1 38
     0.067816225350438     0.031703143669242     0.045075810301450
    -0.038680982027549    -0.224320603547400     0.111865484931622
     0.021223599190929     0.216884238411841    -0.076584348200252
1 39
     0.000000000000000     0.000000000000000     0.000000000000000
     0.000000000000000     0.000000000000000     0.000000000000000
     0.000000000000000     0.000000000000000     0.000000000000000
1 40
     0.085220132525777    -0.500688947272834     0.648826585305136
    -1.382536937951760     0.302189630735830     1.138913549553840
     1.188382348996510     0.406390962448045    -1.312984948509990
1 41
     0.000000000000000     0.000000000000000     0.000000000000000
     0.000000000000000     0.000000000000000     0.000000000000000
     0.000000000000000     0.000000000000000     0.000000000000000
1 42
     0.488891763175948     0.200414495893620     0.218259327983346
     0.584468609571555     0.411009738796403     2.103365281698040
    -0.118673994949204     0.788840309732761    -2.110023287315340
1 43
     0.000000000000000     0.000000000000000     0.000000000000000
     0.000000000000000     0.000000000000000     0.000000000000000
     0.000000000000000     0.000000000000000     0.000000000000000
1 44
     0.068610730061902    -0.037308348064347     0.010415613065517
    -0.041637737390824    -0.298329178013872     0.112407961377604
     0.085011419422803     0.229891520640550    -0.082757301394196
1 45
     0.000000000000000     0.000000000000000     0.000000000000000
     0.000000000000000     0.000000000000000     0.000000000000000
     0.000000000000000     0.000000000000000     0.000000000000000
1 46
     0.068610730061902     0.037308348064347     0.010415613065517
     0.041637737390824    -0.298329178013872    -0.112407961377604
     0.085011419422803    -0.229891520640550    -0.082757301394196
1 47
     0.000000000000000     0.000000000000000     0.000000000000000
     0.000000000000000     0.000000000000000     0.000000000000000
     0.000000000000000     0.000000000000000     0.000000000000000
1 48
     0.488891763175948    -0.200414495893620     0.218259327983346
    -0.584468609571555     0.411009738796403    -2.103365281698040
    -0.118673994949204    -0.788840309732761    -2.110023287315340
1 49
    -2.431868001041530     0.000000000000000     1.352665495195170
     0.000000000000000     0.368881565078526     0.000000000000000
     0.138659503667568     0.000000000000000     0.925393872460000
1 50
    -1.693597224959280     2.366168401014160    -0.435717207686930
     0.869577741981381     0.344355388118089     0.103750161268765
    -0.539218357222776     0.438722846213685     0.264813850788534
1 51
    -0.082252170725301    -0.303893615713905     0.110971899483069
    -0.453472458681356    -0.084550187468904     0.067778058847608
     0.201558324385309     0.049151986159141     0.186567470821741
1 52
    -0.103953745574449     0.150094543169989    -0.007680593323603
     0.185197138035729    -0.316443957799053     0.050411034355650
    -0.067334980022621     0.121445013107644     0.049405872945215
1 53
     0.000000000000000     0.000000000000000     0.000000000000000
     0.000000000000000     0.000000000000000     0.000000000000000
     0.000000000000000     0.000000000000000     0.000000000000000
1 54
    -0.103953745574449    -0.150094543169989    -0.007680593323603
    -0.185197138035729    -0.316443957799053    -0.050411034355650
    -0.067334980022621    -0.121445013107644     0.049405872945215
1 55
    -0.082252170725301     0.303893615713905     0.110971899483069
     0.453472458681356    -0.084550187468904    -0.067778058847608
     0.201558324385309    -0.049151986159141     0.186567470821741
1 56
    -1.693597224959280    -2.366168401014160    -0.435717207686930
    -0.869577741981381     0.344355388118089    -0.103750161268765
    -0.539218357222776    -0.438722846213685     0.264813850788534
1 57
    -0.021520091994958     0.000000000000000    -0.210692726035688
     0.000000000000000     0.030551146873582     0.000000000000000
    -0.029549673574917     0.000000000000000    -0.399883892538917
1 58
     0.000000000000000     0.000000000000000     0.000000000000000
     0.000000000000000     0.000000000000000     0.000000000000000
     0.000000000000000     0.000000000000000     0.000000000000000
1 59
     0.000000000000000     0.000000000000000     0.000000000000000
     0.000000000000000     0.000000000000000     0.000000000000000
     0.000000000000000     0.000000000000000     0.000000000000000
1 60
     0.000000000000000     0.000000000000000     0.000000000000000
     0.000000000000000     0.000000000000000     0.000000000000000
     0.000000000000000     0.000000000000000     0.000000000000000
1 61
     0.000000000000000     0.000000000000000     0.000000000000000
     0.000000000000000     0.000000000000000     0.000000000000000
     0.000000000000000     0.000000000000000     0.000000000000000
1 62
     0.000000000000000     0.000000000000000     0.000000000000000
     0.000000000000000     0.000000000000000     0.000000000000000
     0.000000000000000     0.000000000000000     0.000000000000000
1 63
     0.000000000000000     0.000000000000000     0.000000000000000
     0.000000000000000     0.000000000000000     0.000000000000000
     0.000000000000000     0.000000000000000     0.000000000000000
1 64
     0.000000000000000     0.000000000000000     0.000000000000000
     0.000000000000000     0.000000000000000     0.000000000000000
     0.000000000000000     0.000000000000000     0.000000000000000
1 65
    -4.063630428144610     0.000000000000000    -0.394230103853313
     0.000000000000000    -1.593720747772490     0.000000000000000
    -0.442103112593986     0.000000000000000    -0.770642381958620
1 66
     0.438916382217450     0.361565147030336    -0.112905246293271
     0.061648858524222    -0.096134771601242    -0.003121133257200
     0.123881710355443     0.130209479560559    -0.112175456666434
1 67
    -0.175505920924155    -0.571572829248389     0.005115331570329
    -0.736871126832459     0.465782391692680    -0.109142492422341
     0.139820078891992    -0.227214242166524    -0.267696290908913
1 68
     0.000000000000000     0.000000000000000     0.000000000000000
     0.000000000000000     0.000000000000000     0.000000000000000
     0.000000000000000     0.000000000000000     0.000000000000000
1 69
     0.000000000000000     0.000000000000000     0.000000000000000
     0.000000000000000     0.000000000000000     0.000000000000000
     0.000000000000000     0.000000000000000     0.000000000000000
1 70
     0.000000000000000     0.000000000000000     0.000000000000000
     0.000000000000000     0.000000000000000     0.000000000000000
     0.000000000000000     0.000000000000000     0.000000000000000
1 71
    -0.175505920924155     0.571572829248389     0.005115331570329
     0.736871126832459     0.465782391692680     0.109142492422341
     0.139820078891992     0.227214242166524    -0.267696290908913
1 72
     0.438916382217450    -0.361565147030336    -0.112905246293271
    -0.061648858524222    -0.096134771601242     0.003121133257200
     0.123881710355443    -0.130209479560559    -0.112175456666434
1 73
     0.000000000000000     0.000000000000000     0.000000000000000
     0.000000000000000     0.000000000000000     0.000000000000000
     0.000000000000000     0.000000000000000     0.000000000000000
1 74
     0.000000000000000     0.000000000000000     0.000000000000000
     0.000000000000000     0.000000000000000     0.000000000000000
     0.000000000000000     0.000000000000000     0.000000000000000
1 75
     0.000000000000000     0.000000000000000     0.000000000000000
     0.000000000000000     0.000000000000000     0.000000000000000
     0.000000000000000     0.000000000000000     0.000000000000000
1 76
     0.000000000000000     0.000000000000000     0.000000000000000
     0.000000000000000     0.000000000000000     0.000000000000000
     0.000000000000000     0.000000000000000     0.000000000000000
1 77
     0.000000000000000     0.000000000000000     0.000000000000000
     0.000000000000000     0.000000000000000     0.000000000000000
     0.000000000000000     0.000000000000000     0.000000000000000
1 78
     0.000000000000000     0.000000000000000     0.000000000000000
     0.000000000000000     0.000000000000000     0.000000000000000
     0.000000000000000     0.000000000000000     0.000000000000000
1 79
     0.000000000000000     0.000000000000000     0.000000000000000
     0.000000000000000     0.000000000000000     0.000000000000000
     0.000000000000000     0.000000000000000     0.000000000000000
1 80
     0.000000000000000     0.000000000000000     0.000000000000000
     0.000000000000000     0.000000000000000     0.000000000000000
     0.000000000000000     0.000000000000000     0.000000000000000
1 81
     0.164408701440654     0.000000000000000    -0.480655944414821
     0.000000000000000    -0.535552125364877     0.000000000000000
    -0.625826736355378     0.000000000000000     0.175610070626357
1 82
     0.403031534647136     0.216442281189735     0.248696198873360
     0.080502446706100    -0.074610050597317     0.017845720587856
     0.196954271087681     0.027329167568747     0.085321926681195
1 83
    -0.035596633913147    -0.049004185602616    -0.051421022086743
    -0.315520684203882     0.264180248438856     0.100243413468693
    -0.308252959948537     0.289006279205304     0.072926090485164
1 84
     0.000000000000000     0.000000000000000     0.000000000000000
     0.000000000000000     0.000000000000000     0.000000000000000
     0.000000000000000     0.000000000000000     0.000000000000000
1 85
     0.000000000000000     0.000000000000000     0.000000000000000
     0.000000000000000     0.000000000000000     0.000000000000000
     0.000000000000000     0.000000000000000     0.000000000000000
1 86
     0.000000000000000     0.000000000000000     0.000000000000000
     0.000000000000000     0.000000000000000     0.000000000000000
     0.000000000000000     0.000000000000000     0.000000000000000
1 87
    -0.035596633913147     0.049004185602616    -0.051421022086743
     0.315520684203882     0.264180248438856    -0.100243413468693
    -0.308252959948537    -0.289006279205304     0.072926090485164
1 88
     0.403031534647136    -0.216442281189735     0.248696198873360
    -0.080502446706100    -0.074610050597317    -0.017845720587856
     0.196954271087681    -0.027329167568747     0.085321926681195
1 89
    -0.257376216782699     0.000000000000000     0.242601843013740
     0.000000000000000    -0.785977004296557     0.000000000000000
     0.576958034147746     0.000000000000000     0.739801737601254
1 90
     0.000000000000000     0.000000000000000     0.000000000000000
     0.000000000000000     0.000000000000000     0.000000000000000
     0.000000000000000     0.000000000000000     0.000000000000000
1 91
    -0.222056827797189     0.084671481933835    -0.076903025939345
    -0.376937137216063     0.358957827447018    -0.324123853855384
     0.272551721691456    -0.365386335642732     0.276700018227244
1 92
     0.000000000000000     0.000000000000000     0.000000000000000
     0.000000000000000     0.000000000000000     0.000000000000000
     0.000000000000000     0.000000000000000     0.000000000000000
1 93
     0.000000000000000     0.000000000000000     0.000000000000000
     0.000000000000000     0.000000000000000     0.000000000000000
     0.000000000000000     0.000000000000000     0.000000000000000
1 94
     0.000000000000000     0.000000000000000     0.000000000000000
     0.000000000000000     0.000000000000000     0.000000000000000
     0.000000000000000     0.000000000000000     0.000000000000000
1 95
    -0.222056827797189    -0.084671481933835    -0.076903025939345
     0.376937137216063     0.358957827447018     0.324123853855384
     0.272551721691456     0.365386335642732     0.276700018227244
1 96
     0.000000000000000     0.000000000000000     0.000000000000000
     0.000000000000000     0.000000000000000     0.000000000000000
     0.000000000000000     0.000000000000000     0.000000000000000
1 97
     0.000000000000000     0.000000000000000     0.000000000000000
     0.000000000000000     0.000000000000000     0.000000000000000
     0.000000000000000     0.000000000000000     0.000000000000000
1 98
    -1.604795277404320    -0.190543838372042    -0.013202334297513
     0.057945772232495    -0.963904163693705     0.419630616658172
     0.076007114352257     0.544578722582610    -1.099364141197850
1 99
     0.000000000000000     0.000000000000000     0.000000000000000
     0.000000000000000     0.000000000000000     0.000000000000000
     0.000000000000000     0.000000000000000     0.000000000000000
1 100
    -0.142505158269100    -0.016473701770693    -0.010102989136512
     0.004512650388172     0.370343312276440     0.071837659739144
    -0.029483588999710     0.302528508668917    -0.016113632430949
1 101
     0.000000000000000     0.000000000000000     0.000000000000000
     0.000000000000000     0.000000000000000     0.000000000000000
     0.000000000000000     0.000000000000000     0.000000000000000
1 102
    -0.142505158269100     0.016473701770693    -0.010102989136512
    -0.004512650388172     0.370343312276440    -0.071837659739144
    -0.029483588999710    -0.302528508668917    -0.016113632430949
1 103
     0.000000000000000     0.000000000000000     0.000000000000000
     0.000000000000000     0.000000000000000     0.000000000000000
     0.000000000000000     0.000000000000000     0.000000000000000
1 104
    -1.604795277404320     0.190543838372042    -0.013202334297513
    -0.057945772232495    -0.963904163693705    -0.419630616658172
     0.076007114352257    -0.544578722582610    -1.099364141197850
1 105
     0.000000000000000     0.000000000000000     0.000000000000000
     0.000000000000000     0.000000000000000     0.000000000000000
     0.000000000000000     0.000000000000000     0.000000000000000
1 106
    -0.084113891176851     0.021219179391765    -0.076947650143063
     0.185054418123140    -0.061611999477895    -0.402902061282661
    -0.234865448584895    -0.037177877213403     0.440844045098765
1 107
     0.000000000000000     0.000000000000000     0.000000000000000
     0.000000000000000     0.000000000000000     0.000000000000000
     0.000000000000000     0.000000000000000     0.000000000000000
1 108
     0.000000000000000     0.000000000000000     0.000000000000000
     0.000000000000000     0.000000000000000     0.000000000000000
     0.000000000000000     0.000000000000000     0.000000000000000
1 109
     0.000000000000000     0.000000000000000     0.000000000000000
     0.000000000000000     0.000000000000000     0.000000000000000
     0.000000000000000     0.000000000000000     0.000000000000000
1 110
     0.000000000000000     0.000000000000000     0.000000000000000
     0.000000000000000     0.000000000000000     0.000000000000000
     0.000000000000000     0.000000000000000     0.000000000000000
1 111
     0.000000000000000     0.000000000000000     0.000000000000000
     0.000000000000000     0.000000000000000     0.000000000000000
     0.000000000000000     0.000000000000000     0.000000000000000
1 112
    -0.084113891176851    -0.021219179391765    -0.076947650143063
    -0.185054418123140    -0.061611999477895     0.402902061282661
    -0.234865448584895     0.037177877213403     0.440844045098765
1 113
    -2.373616909154850     0.000000000000000    -0.053196875343015
     0.000000000000000    -1.492516475808120     0.000000000000000
    -0.422291372452780     0.000000000000000    -1.794337616276260
1 114
     0.595995196443855    -0.325694384494941    -0.324016331737639
     0.020120548407502    -0.104877833854448    -0.020401458004311
     0.229983936851649    -0.073121600966549    -0.253666650428206
1 115
    -0.118392656142756     0.391439063713644     0.064655203725559
     0.566339318805617     0.448472852308490     0.213963610866182
     0.163366575826442     0.186181326152283    -0.544825938183401
1 116
     0.000000000000000     0.000000000000000     0.000000000000000
     0.000000000000000     0.000000000000000     0.000000000000000
     0.000000000000000     0.000000000000000     0.000000000000000
1 117
     0.000000000000000     0.000000000000000     0.000000000000000
     0.000000000000000     0.000000000000000     0.000000000000000
     0.000000000000000     0.000000000000000     0.000000000000000
1 118
     0.000000000000000     0.000000000000000     0.000000000000000
     0.000000000000000     0.000000000000000     0.000000000000000
     0.000000000000000     0.000000000000000     0.000000000000000
1 119
    -0.118392656142756    -0.391439063713644     0.064655203725559
    -0.566339318805617     0.448472852308490    -0.213963610866182
     0.163366575826442    -0.186181326152283    -0.544825938183401
1 120
     0.595995196443855     0.325694384494941    -0.324016331737639
    -0.020120548407502    -0.104877833854448     0.020401458004311
     0.229983936851649     0.073121600966549    -0.253666650428206
1 121
     0.000000000000000     0.000000000000000     0.000000000000000
     0.000000000000000     0.000000000000000     0.000000000000000
     0.000000000000000     0.000000000000000     0.000000000000000
1 122
     0.000000000000000     0.000000000000000     0.000000000000000
     0.000000000000000     0.000000000000000     0.000000000000000
     0.000000000000000     0.000000000000000     0.000000000000000
1 123
     0.000000000000000     0.000000000000000     0.000000000000000
     0.000000000000000     0.000000000000000     0.000000000000000
     0.000000000000000     0.000000000000000     0.000000000000000
1 124
     0.000000000000000     0.000000000000000     0.000000000000000
     0.000000000000000     0.000000000000000     0.000000000000000
     0.000000000000000     0.000000000000000     0.000000000000000
1 125
     0.000000000000000     0.000000000000000     0.000000000000000
     0.000000000000000     0.000000000000000     0.000000000000000
     0.000000000000000     0.000000000000000     0.000000000000000
1 126
     0.000000000000000     0.000000000000000     0.000000000000000
     0.000000000000000     0.000000000000000     0.000000000000000
     0.000000000000000     0.000000000000000     0.000000000000000
1 127
     0.000000000000000     0.000000000000000     0.000000000000000
     0.000000000000000     0.000000000000000     0.000000000000000
     0.000000000000000     0.000000000000000     0.000000000000000
1 128
     0.000000000000000     0.000000000000000     0.000000000000000
     0.000000000000000     0.000000000000000     0.000000000000000
     0.000000000000000     0.000000000000000     0.000000000000000
1 129
    -0.211333682798581     0.000000000000000     0.633848915919855
     0.000000000000000    -0.501253533614037     0.000000000000000
     0.279852123798717     0.000000000000000     0.616341105202174
1 130
     0.000000000000000     0.000000000000000     0.000000000000000
     0.000000000000000     0.000000000000000     0.000000000000000
     0.000000000000000     0.000000000000000     0.000000000000000
1 131
    -0.081993295518344     0.003996603726531    -0.015950982237753
     0.188274655180680     0.247187825360379     0.280168341675582
     0.150709456737043     0.282716472691036     0.273618209783691
1 132
     0.000000000000000     0.000000000000000     0.000000000000000
     0.000000000000000     0.000000000000000     0.000000000000000
     0.000000000000000     0.000000000000000     0.000000000000000
1 133
     0.000000000000000     0.000000000000000     0.000000000000000
     0.000000000000000     0.000000000000000     0.000000000000000
     0.000000000000000     0.000000000000000     0.000000000000000
1 134
     0.000000000000000     0.000000000000000     0.000000000000000
     0.000000000000000     0.000000000000000     0.000000000000000
     0.000000000000000     0.000000000000000     0.000000000000000
1 135
    -0.081993295518344    -0.003996603726531    -0.015950982237753
    -0.188274655180680     0.247187825360379    -0.280168341675582
     0.150709456737043    -0.282716472691036     0.273618209783691
1 136
     0.000000000000000     0.000000000000000     0.000000000000000
     0.000000000000000     0.000000000000000     0.000000000000000
     0.000000000000000     0.000000000000000     0.000000000000000
1 137
     0.284723984825845     0.000000000000000    -0.521188219635969
     0.000000000000000    -0.258379768470760     0.000000000000000
    -0.335595135338073     0.000000000000000     0.147582384694405
1 138
     0.238396249201353    -0.413918092883036     0.723815162014076
    -0.023614536879385    -0.111507171211664    -0.022832591251390
     0.166639067795282    -0.111589325396128     0.144367808320185
1 139
     0.002296588608052     0.045140044262778    -0.027247646672648
     0.195055349267099     0.085818645621662    -0.097240760039948
    -0.163818065074998    -0.097747263737454     0.080369040566949
1 140
     0.000000000000000     0.000000000000000     0.000000000000000
     0.000000000000000     0.000000000000000     0.000000000000000
     0.000000000000000     0.000000000000000     0.000000000000000
1 141
     0.000000000000000     0.000000000000000     0.000000000000000
     0.000000000000000     0.000000000000000     0.000000000000000
     0.000000000000000     0.000000000000000     0.000000000000000
1 142
     0.000000000000000     0.000000000000000     0.000000000000000
     0.000000000000000     0.000000000000000     0.000000000000000
     0.000000000000000     0.000000000000000     0.000000000000000
1 143
     0.002296588608052    -0.045140044262778    -0.027247646672648
    -0.195055349267099     0.085818645621662     0.097240760039948
    -0.163818065074998     0.097747263737454     0.080369040566949
1 144
     0.238396249201353     0.413918092883036     0.723815162014076
     0.023614536879385    -0.111507171211664     0.022832591251390
     0.166639067795282     0.111589325396128     0.144367808320185
1 145
     0.000000000000000     0.000000000000000     0.000000000000000
     0.000000000000000     0.000000000000000     0.000000000000000
     0.000000000000000     0.000000000000000     0.000000000000000
1 146
    -1.300417516574330    -0.597931426497521     0.433600279212409