  MPI-parallelism will be employed.
------------------------------------------------------------
          Invoking FHI-aims ...

          When using FHI-aims, please cite the following reference:

          Volker Blum, Ralf Gehrke, Felix Hanke, Paula Havu,
          Ville Havu, Xinguo Ren, Karsten Reuter, and Matthias Scheffler,
          'Ab Initio Molecular Simulations with Numeric Atom-Centered Orbitals',
          Computer Physics Communications 180, 2175-2196 (2009)

          For any questions about FHI-aims, please visit the aimsclub website
          with its forums and wiki. Contributions to both the forums and the
          wiki are warmly encouraged - they are for you, and everyone is welcome there.

------------------------------------------------------------



  Date     :  20181117, Time     :  012157.375
  Time zero on CPU 1             :   0.173260000000000E-01  s.
  Internal wall clock time zero  :           311649717.375  s.

  FHI-aims created a unique identifier for this run for later identification
  aims_uuid : 8B637737-9255-418B-AE4A-7AA6BE0F4360

  Build configuration of the current instance of FHI-aims
  -------------------------------------------------------
  FHI-aims version      : 181025
  Commit number         : 436c0fce9
  CMake host system     : Linux-4.15.0-38-generic
  CMake version         : 3.5.1
  Fortran compiler      : /home/knoop/local/openmpi-3.0.0/build/bin/mpifort (Intel) version 17.0.1.20161005
  Fortran compiler flags: -O3 -ip -fp-model precise -xHOST
  C compiler            : /usr/bin/gcc (GNU) version 8.1.0
  C compiler flags      : -O3
  Architecture          :
  Using MPI
  Using C files
  Using SPGlib
  Using i-PI
  Linking against: /home/knoop/local/anaconda3/pkgs/mkl-2019.0-118/lib/libmkl_intel_lp64.so
                   /home/knoop/local/anaconda3/pkgs/mkl-2019.0-118/lib/libmkl_sequential.so
                   /home/knoop/local/anaconda3/pkgs/mkl-2019.0-118/lib/libmkl_core.so
                   /home/knoop/local/anaconda3/pkgs/mkl-2019.0-118/lib/libmkl_blacs_intelmpi_lp64.so
                   /home/knoop/local/anaconda3/pkgs/mkl-2019.0-118/lib/libmkl_scalapack_lp64.so

  Using        4 parallel tasks.
  Task        0 on host theobook135 reporting.
  Task        1 on host theobook135 reporting.
  Task        2 on host theobook135 reporting.
  Task        3 on host theobook135 reporting.

  Performing system and environment tests:
  *** Environment variable OMP_NUM_THREADS is not set
  *** For performance reasons you might want to set it to 1
  | Maximum stacksize for task 0: unlimited
  | Maximum stacksize for task 1: unlimited
  | Maximum stacksize for task 2: unlimited
  | Maximum stacksize for task 3: unlimited
  | Current stacksize for task 0: unlimited
  | Current stacksize for task 1: unlimited
  | Current stacksize for task 2: unlimited
  | Current stacksize for task 3: unlimited
  | Checking for scalapack...
  | No scalapack compiled in.

  Obtaining array dimensions for all initial allocations:
  
  -----------------------------------------------------------------------
  Parsing control.in (first pass over file, find array dimensions only).
  The contents of control.in will be repeated verbatim below
  unless switched off by setting 'verbatim_writeout .false.' .
  in the first line of control.in .
  -----------------------------------------------------------------------
  
  #===============================================================================
  # FHI-aims file: ./control.in
  # Created using the Atomic Simulation Environment (ASE)
  # Sat Nov 17 01:21:57 2018
  #
  # List of parameters used to initialize the calculator:
  #     xc : pbesol
  #     relativistic : atomic_zora scalar
  #     k_grid : [2, 2, 2]
  #     output_level : MD_light
  #     compute_forces : True
  #     compute_analytical_stress : False
  #     sc_accuracy_rho : 1e-06
  #     charge_mix_param : 0.5
  #     use_pimd_wrapper : ('localhost', 12345)
  #     species_dir : /home/knoop/FHIaims/aimsfiles/species_defaults/light
  #===============================================================================
  xc                                 pbesol
  relativistic                       atomic_zora scalar
  k_grid                             2 2 2
  output_level                       MD_light
  compute_forces                     .true.
  compute_analytical_stress          .false.
  sc_accuracy_rho                    1e-06
  charge_mix_param                   0.5
  use_pimd_wrapper                   localhost 12345
  #===============================================================================
  
  ################################################################################
  #
  #  FHI-aims code project
  #  VB, Fritz-Haber Institut, 2009
  #
  #  Suggested "light" defaults for Si atom (to be pasted into control.in file)
  #  Be sure to double-check any results obtained with these settings for post-processing,
  #  e.g., with the "tight" defaults and larger basis sets.
  #
  ################################################################################
    species        Si
  #     global species definitions
      nucleus             14
      mass                28.0855
  #
      l_hartree           4
  #
      cut_pot             3.5          1.5  1.0
      basis_dep_cutoff    1e-4
  #
      radial_base         42 5.0
      radial_multiplier   1
      angular_grids       specified
        division   0.5866   50
        division   0.9616  110
        division   1.2249  194
        division   1.3795  302
  #      division   1.4810  434
  #      division   1.5529  590
  #      division   1.6284  770
  #      division   1.7077  974
  #      division   2.4068 1202
  #      outer_grid   974
        outer_grid 302
  ################################################################################
  #
  #  Definition of "minimal" basis
  #
  ################################################################################
  #     valence basis states
      valence      3  s   2.
      valence      3  p   2.
  #     ion occupancy
      ion_occ      3  s   1.
      ion_occ      3  p   1.
  ################################################################################
  #
  #  Suggested additional basis functions. For production calculations,
  #  uncomment them one after another (the most important basis functions are
  #  listed first).
  #
  #  Constructed for dimers: 1.75 A, 2.0 A, 2.25 A, 2.75 A, 3.75 A
  #
  ################################################################################
  #  "First tier" - improvements: -571.96 meV to -37.03 meV
       hydro 3 d 4.2
       hydro 2 p 1.4
  #     hydro 4 f 6.2
       ionic 3 s auto
  #  "Second tier" - improvements: -16.76 meV to -3.03 meV
  #     hydro 3 d 9
  #     hydro 5 g 9.4
  #     hydro 4 p 4
  #     hydro 1 s 0.65
  #  "Third tier" - improvements: -3.89 meV to -0.60 meV
  #     ionic 3 d auto
  #     hydro 3 s 2.6
  #     hydro 4 f 8.4
  #     hydro 3 d 3.4
  #     hydro 3 p 7.8
  #  "Fourth tier" - improvements: -0.33 meV to -0.11 meV
  #     hydro 2 p 1.6
  #     hydro 5 g 10.8
  #     hydro 5 f 11.2
  #     hydro 3 d 1
  #     hydro 4 s 4.5
  #  Further basis functions that fell out of the optimization - noise
  #  level... < -0.08 meV
  #     hydro 4 d 6.6
  #     hydro 5 g 16.4
  #     hydro 4 d 9
  
  -----------------------------------------------------------------------
  Completed first pass over input file control.in .
  -----------------------------------------------------------------------
  
  
  -----------------------------------------------------------------------
  Parsing geometry.in (first pass over file, find array dimensions only).
  The contents of geometry.in will be repeated verbatim below
  unless switched off by setting 'verbatim_writeout .false.' .
  in the first line of geometry.in .
  -----------------------------------------------------------------------
  
  #=======================================================
  # FHI-aims file: ./geometry.in
  # Created using the Atomic Simulation Environment (ASE)
  # Sat Nov 17 01:21:57 2018
  #=======================================================
  lattice_vector 5.4399999999999995 0.0000000000000000 0.0000000000000000
  lattice_vector 0.0000000000000000 5.4399999999999995 0.0000000000000000
  lattice_vector 0.0000000000000000 0.0000000000000000 5.4399999999999995
  atom 0.0100000000000000 0.0000000000000000 0.0000000000000000 Si
  atom 5.4399999999999995 2.7199999999999998 2.7199999999999998 Si
  atom 2.7199999999999998 0.0000000000000000 2.7199999999999998 Si
  atom 2.7199999999999998 2.7199999999999998 0.0000000000000000 Si
  atom 1.3599999999999999 1.3599999999999999 1.3599999999999999 Si
  atom 1.3599999999999997 4.0800000000000001 4.0800000000000001 Si
  atom 4.0800000000000001 1.3599999999999999 4.0800000000000001 Si
  atom 4.0800000000000001 4.0800000000000001 1.3599999999999999 Si
  
  -----------------------------------------------------------------------
  Completed first pass over input file geometry.in .
  -----------------------------------------------------------------------
  

  Basic array size parameters:
  | Number of species                 :        1
  | Number of atoms                   :        8
  | Number of lattice vectors         :        3
  | Max. basis fn. angular momentum   :        2
  | Max. atomic/ionic basis occupied n:        3
  | Max. number of basis fn. types    :        3
  | Max. radial fns per species/type  :        5
  | Max. logarithmic grid size        :     1346
  | Max. radial integration grid size :       42
  | Max. angular integration grid size:      302
  | Max. angular grid division number :        8
  | Radial grid for Hartree potential :     1346
  | Number of spin channels           :        1

------------------------------------------------------------
          Reading file control.in.
------------------------------------------------------------
  XC: Using PBEsol gradient-corrected functionals.
  Scalar relativistic treatment of kinetic energy: on-site free-atom approximation to ZORA.
  Found k-point grid:         2         2         2
  Requested output level: MD_light            
  Forces will be computed.
  Convergence accuracy of self-consistent charge density:  0.1000E-05
  Charge density mixing - mixing parameter:     0.5000
  Using external wrapper (i-PI) for performing (path integral) molecular dynamics
  **Attention: initial geometry.in file will be ignored!
 
  Reading configuration options for species Si                  .
  | Found nuclear charge :  14.0000
  | Found atomic mass :    28.0855000000000      amu
  | Found l_max for Hartree potential  :   4
  | Found cutoff potl. onset [A], width [A], scale factor :    3.50000    1.50000    1.00000
  | Threshold for basis-dependent cutoff potential is   0.100000E-03
  | Found data for basic radial integration grid :    42 points, outermost radius =    5.000 A
  | Found multiplier for basic radial grid :   1
  | Found angular grid specification: user-specified.
  | Specified grid contains     5 separate shells.
  | Check grid settings after all constraints further below.
  | Found free-atom valence shell :  3 s   2.000
  | Found free-atom valence shell :  3 p   2.000
  | Found free-ion valence shell :  3 s   1.000
  | Found free-ion valence shell :  3 p   1.000
  | Found hydrogenic basis function :  3 d   4.200
  | Found hydrogenic basis function :  2 p   1.400
  | Found ionic basis function :  3 s , default cutoff radius.
  Species Si                  : Missing cutoff potential type.
  Defaulting to exp(1/x)/(1-x)^2 type cutoff potential.
  Species Si: No 'logarithmic' tag. Using default grid for free atom:
  | Default logarithmic grid data [bohr] : 0.1000E-03 0.1000E+03 0.1012E+01
  | Will include ionic basis functions of  2.0-fold positive Si                   ion.
  Species Si: On-site basis accuracy parameter (for Gram-Schmidt orthonormalisation) not specified.
  Using default value basis_acc =  0.1000000E-03.
  Species Si                  : Using default innermost maximum threshold i_radial=  2 for radial functions.
  Species Si                  : Default cutoff onset for free atom density etc. : 0.35000000E+01 AA.
  Species Si                  : Basic radial grid will be enhanced according to radial_multiplier =   1, to contain    42 grid points.
 
  Finished reading input file 'control.in'. Consistency checks are next.
 
  MPI_IN_PLACE appears to work with this MPI implementation.
  | Keeping use_mpi_in_place .true. (see manual).
  Target number of points in a grid batch is not set. Defaulting to  100
  Method for grid partitioning is not set. Defaulting to parallel hash+maxmin partitioning.
  Batch size limit is not set. Defaulting to    200
  By default, will store active basis functions for each batch.
  If in need of memory, prune_basis_once .false. can be used to disable this option.
  communication_type for Hartree potential was not specified.
  Defaulting to calc_hartree .
  Defaulting to Pulay charge density mixer.
  Pulay mixer: Number of relevant iterations not set.
  Defaulting to    8 iterations.
  Pulay mixer: Number of initial linear mixing iterations not set.
  Defaulting to    0 iterations.
  Work space size for distributed Hartree potential not set.
  Defaulting to   0.200000E+03 MB.
  Algorithm-dependent basis array size parameters:
  | n_max_pulay                         :        8
  Maximum number of self-consistency iterations not provided.
  Presetting  1000 iterations.
  Presetting      1001 iterations before the initial mixing cycle
  is restarted anyway using the sc_init_iter criterion / keyword.
  Presetting a factor      1.000 between actual scf density residual
  and density convergence criterion sc_accuracy_rho below which sc_init_iter
  takes no effect.
  Geometry relaxation not requested: no relaxation will be performed.
  Force calculation: scf convergence accuracy of forces not set.
  Defaulting to 'sc_accuracy_forces not_checked'.
  Handling of forces: Unphysical translation and rotation will be removed from forces.
  No accuracy limit for integral partition fn. given. Defaulting to  0.1000E-14.
  No threshold value for u(r) in integrations given. Defaulting to  0.1000E-05.
  No occupation type (smearing scheme) given. Defaulting to Gaussian broadening, width =  0.1000E-01 eV.
  The width will be adjusted in iteration number     2 of the first full s.c.f. cycle only.
  S.C.F. convergence parameters will be adjusted in iteration number     2 of the first full s.c.f. cycle only.
  No accuracy for occupation numbers given. Defaulting to  0.1000E-12.
  No threshold value for occupation numbers given. Defaulting to  0.0000E+00.
  No accuracy for fermi level given. Defaulting to  0.1000E-19.
  Maximum # of iterations to find E_F not set. Defaulting to  200.
  Preferred method for the eigenvalue solver ('KS_method') not specified in 'control.in'.
  Defaulting to serial version, 'lapack_fast', since more k-points than CPUs available.
  Will not use alltoall communication since running on < 1024 CPUs.
  Threshold for basis singularities not set.
  Default threshold for basis singularities:  0.1000E-04
  partition_type (choice of integration weights) for integrals was not specified.
  | Using a version of the partition function of Stratmann and coworkers ('stratmann_sparse').
  | At each grid point, the set of atoms used to build the partition table is smoothly restricted to
  | only those atoms whose free-atom density would be non-zero at that grid point.
  Partitioning for Hartree potential was not defined. Using partition_type for integrals.
  | Adjusted default value of keyword multip_moments_threshold to:       0.10000000E-11
  | This value may affect high angular momentum components of the Hartree potential in periodic systems.
  Spin handling was not defined in control.in. Defaulting to unpolarized case.
  Angular momentum expansion for Kerker preconditioner not set explicitly.
  | Using default value of   0
  No explicit requirement for turning off preconditioner.
  | By default, it will be turned off when the charge convergence reaches
  | sc_accuracy_rho  =   0.100000E-05
  No special mixing parameter while Kerker preconditioner is on.
  Using default: charge_mix_param =     0.5000.
  No q(lm)/r^(l+1) cutoff set for long-range Hartree potential.
  | Using default value of  0.100000E-09 .
  | Verify using the multipole_threshold keyword.
  Defaulting to new monopole extrapolation.
  Density update method: automatic selection selected.
  Using density matrix based charge density update.
  Using density matrix based charge density update.
  Using packed matrix style: index .
  Defaulting to use time-reversal symmetry for k-point grid.
------------------------------------------------------------


------------------------------------------------------------
          Reading geometry description geometry.in.
------------------------------------------------------------
  Input structure read successfully.
  The structure contains        8 atoms,  and a total of        112.000 electrons.

  Input geometry:
  | Unit cell:
  |        5.44000000        0.00000000        0.00000000
  |        0.00000000        5.44000000        0.00000000
  |        0.00000000        0.00000000        5.44000000
  | Atomic structure:
  |       Atom                x [A]            y [A]            z [A]
  |    1: Species Si            0.01000000        0.00000000        0.00000000
  |    2: Species Si            5.44000000        2.72000000        2.72000000
  |    3: Species Si            2.72000000        0.00000000        2.72000000
  |    4: Species Si            2.72000000        2.72000000        0.00000000
  |    5: Species Si            1.36000000        1.36000000        1.36000000
  |    6: Species Si            1.36000000        4.08000000        4.08000000
  |    7: Species Si            4.08000000        1.36000000        4.08000000
  |    8: Species Si            4.08000000        4.08000000        1.36000000

  Lattice parameters for 3D lattice (in Angstroms) :     5.440000    5.440000    5.440000
  Angle(s) between unit vectors (in degrees)       :    90.000000   90.000000   90.000000

  |

  | The smallest distance between any two atoms is         2.34982978 AA.
  |
  | The first atom of this pair is atom number                      1 .
  | The second atom of this pair is atom number                     6 .
  | Wigner-Seitz cell of the first atom image           0     0     0 .
  | (The Wigner-Seitz cell of the second atom is 0 0 0  by definition.)

  Symmetry information by spglib:
  | Precision set to  0.1E-04
  | Number of Operations  : 4
  | Space group           : 35
  | International         : Cmm2
  | Schoenflies           : C2v^11

  Quantities derived from the lattice vectors:
  | Reciprocal lattice vector 1:  1.154997  0.000000  0.000000
  | Reciprocal lattice vector 2:  0.000000  1.154997  0.000000
  | Reciprocal lattice vector 3:  0.000000  0.000000  1.154997
  | Unit cell volume                               :   0.160989E+03  A^3

  Range separation radius for Ewald summation (hartree_convergence_parameter):      3.89607948 bohr.

  Number of empty states per atom not set in control.in - providing a guess from actual geometry.
  | Total number of empty states used during s.c.f. cycle:       24
  If you use a very high smearing, use empty_states (per atom!) in control.in to increase this value.

  Structure-dependent array size parameters: 
  | Maximum number of distinct radial functions  :        8
  | Maximum number of basis functions            :      144
  | Number of Kohn-Sham states (occupied + empty):       80
------------------------------------------------------------

************************** W A R N I N G *******************************
* You are using the PIMD wrapper. Specifications and positions         *
* in geometry.in will be IGNORED - all is received from the wrapper.   *
* Please make sure species are declared in the same order in           *
* geometry.in and wrapper input.                                       *
************************************************************************


------------------------------------------------------------
          Preparing all fixed parts of the calculation.
------------------------------------------------------------
  Determining machine precision:
    2.225073858507201E-308
  Setting up grids for atomic and cluster calculations.

  Creating wave function, potential, and density for free atoms.

  Species: Si

  List of occupied orbitals and eigenvalues:
    n    l              occ      energy [Ha]    energy [eV]
    1    0           2.0000       -65.767597     -1789.6274
    2    0           2.0000        -5.115610      -139.2028
    3    0           2.0000        -0.388877       -10.5819
    2    1           6.0000        -3.500197       -95.2452
    3    1           2.0000        -0.140803        -3.8315

  Creating fixed part of basis set: Ionic, confined, hydrogenic.
 
  Si                   ion:

  List of free ionic orbitals and eigenvalues:
    n    l      energy [Ha]    energy [eV]
    1    0       -66.641157     -1813.3982
    2    0        -5.964274      -162.2962
    3    0        -1.073878       -29.2217
    2    1        -4.350005      -118.3697
    3    1        -0.776571       -21.1316


  List of ionic basis orbitals and eigenvalues:
    n    l      energy [Ha]    energy [eV]    outer radius [A]
    3    0        -1.073857       -29.2211       4.214062

 
  Si                   hydrogenic:
 
  List of hydrogenic basis orbitals: 
    n    l      effective z      eigenvalue [eV]  inner max. [A]     outer max. [A]     outer radius [A]   
    3    2         4.200000       -26.6624           1.139231           1.139231           4.534782
    2    1         1.400000        -6.4613           1.472672           1.472672           4.590560
 

  Adding cutoff potential to free-atom effective potential.
  Creating atomic-like basis functions for current effective potential.

  Species Si                  :

  List of atomic basis orbitals and eigenvalues:
    n    l      energy [Ha]    energy [eV]    outer radius [A]
    1    0       -65.767597     -1789.6274       0.789468
    2    0        -5.115610      -139.2028       2.815114
    3    0        -0.388877       -10.5819       4.534782
    2    1        -3.500197       -95.2452       3.259919
    3    1        -0.140803        -3.8315       4.590560

  Assembling full basis from fixed parts.
  | Species Si :   atomic orbital   1 s accepted.
  | Species Si :   atomic orbital   2 s accepted.
  | Species Si :    ionic orbital   3 s accepted.
  | Species Si :   atomic orbital   3 s accepted.
  | Species Si :   atomic orbital   2 p accepted.
  | Species Si :   atomic orbital   3 p accepted.
  | Species Si :    hydro orbital   2 p accepted.
  | Species Si :    hydro orbital   3 d accepted.
 
  Basis size parameters after reduction:
  | Total number of radial functions:        8
  | Total number of basis functions :      144
 
  Per-task memory consumption for arrays in subroutine allocate_ext:
  |           2.760268MB.
  Testing on-site integration grid accuracy.
  |  Species  Function  <phi|h_atom|phi> (log., in eV)  <phi|h_atom|phi> (rad., in eV)
           1        1              -1789.6273740966              -1789.6266345813
           1        2               -139.2028173376               -139.2028132357
           1        3                -10.2237226190                -10.2235219160
           1        4                  5.6355365073                  5.5558633521 ***
           1        5                -95.2452114632                -95.2452114537
           1        6                 -3.8413965043                 -3.8571292824
           1        7                  6.4035522332                  6.2277973139 ***
           1        8                  6.3860095444                  6.3839142324
 * Note: Onsite integrals marked "***" above are less accurate than
 * onsite_accuracy_threshold =    0.03000 eV. Usually, this is harmless.
 * When in doubt, tighten the "radial" and/or "radial_multiplier" flags to check.

  Preparing densities etc. for the partition functions (integrals / Hartree potential).

  Preparations completed.
  max(cpu_time)          :      0.122 s.
  Wall clock time (cpu1) :      0.121 s.
------------------------------------------------------------

************************** W A R N I N G *******************************
* Skipping the SCF initialization for now - done inside wrapper      *
************************************************************************

  @ DRIVER MODE: Connecting to host:port localhost       12345
  @ DRIVER MODE: Message from server: STATUS      
  @ DRIVER MODE: Message from server: POSDATA     
  @ DRIVER MODE: Received positions 

------------------------------------------------------------
          Begin self-consistency loop: Initialization.

          Date     :  20181117, Time     :  012157.546
------------------------------------------------------------

  Initializing index lists of integration centers etc. from given atomic structure:
  Mapping all atomic coordinates to central unit cell.

  Initializing the k-points
          Using symmetry for reducing the k-points
  | k-points reduced from:        8 to        8
  | Number of k-points                             :         8
  The eigenvectors in the calculations are REAL.
  | K-points in task   0:         2
  | K-points in task   1:         2
  | K-points in task   2:         2
  | K-points in task   3:         2
  | Number of basis functions in the Hamiltonian integrals :      2156
  | Number of basis functions in a single unit cell        :       144
  | Number of centers in hartree potential         :      1026
  | Number of centers in hartree multipole         :       486
  | Number of centers in electron density summation:       324
  | Number of centers in basis integrals           :       366
  | Number of centers in integrals                 :       143
  | Number of centers in hamiltonian               :       324
  | Consuming          9 KiB for k_phase.
  | Number of super-cells (origin) [n_cells]                     :         729
  | Number of super-cells (after PM_index) [n_cells]             :          76
  | Number of super-cells in hamiltonian [n_cells_in_hamiltonian]:          76
  | Size of matrix packed + index [n_hamiltonian_matrix_size] :      167241
  Partitioning the integration grid into batches with parallel hashing+maxmin method.
  | Number of batches:      512
  | Maximal batch size:      90
  | Minimal batch size:      85
  | Average batch size:      87.562
  | Standard deviation of batch sizes:       1.493

  Integration load balanced across     4 MPI tasks.
  Work distribution over tasks is as follows:
  Task     0 has      11251 integration points.
  Task     1 has      11210 integration points.
  Task     2 has      11210 integration points.
  Task     3 has      11161 integration points.
  Initializing partition tables, free-atom densities, potentials, etc. across the integration grid (initialize_grid_storage).
  | initialize_grid_storage: Actual outermost partition radius vs. multipole_radius_free
  | (-- VB: in principle, multipole_radius_free should be larger, hence this output)
  | Species        1: Confinement radius =              4.999999999999999 AA, multipole_radius_free =              5.000694715736543 AA.
  | Species        1: outer_partition_radius set to              5.000694715736543 AA .
  | The sparse table of interatomic distances needs        468.32 kbyte instead of      1071.65 kbyte of memory.
  | Net number of integration points:    44832
  | of which are non-zero points    :    39268
  | Numerical average free-atom electrostatic potential    :    -13.06160522 eV
  Renormalizing the initial density to the exact electron count on the 3D integration grid.
  | Initial density: Formal number of electrons (from input files) :     112.0000000000
  | Integrated number of electrons on 3D grid     :     112.0196908673
  | Charge integration error                      :       0.0196908673
  | Normalization factor for density and gradient :       0.9998242196
  Obtaining max. number of non-zero basis functions in each batch (get_n_compute_maxes).
  | Maximal number of non-zero basis functions:      470 in task     0
  | Maximal number of non-zero basis functions:      461 in task     1
  | Maximal number of non-zero basis functions:      457 in task     2
  | Maximal number of non-zero basis functions:      463 in task     3
  Allocating        0.184 MB for KS_eigenvector
  Integrating Hamiltonian matrix: batch-based integration.
  Time summed over all CPUs for integration: real work        1.459 s, elapsed        1.464 s
  Integrating overlap matrix.
  Time summed over all CPUs for integration: real work        0.888 s, elapsed        0.893 s
  Decreasing sparse matrix size:
   Tolerance:  9.999999824516700E-014
   Hamiltonian matrix
  | Array has   150106 nonzero elements out of   167241 elements
  | Sparsity factor is 0.102
   Overlap matrix
  | Array has   145520 nonzero elements out of   167241 elements
  | Sparsity factor is 0.130
  New size of hamiltonian matrix:      150427

  Updating Kohn-Sham eigenvalues, eigenvectors, occupation numbers, and Fermi level.
  Solving generalized eigenproblem
  Transforming overlap matrix and checking for singularities.
  Updating Kohn-Sham eigenvalues and eigenfunctions.
  Solving real generalised eigenvalue problem by standard LAPACK (fast)
  Overlap matrix is nonsingular:
  | Lowest eigenvalue at k-point        1:  0.120206E-02
  Updating Kohn-Sham eigenvalues and eigenfunctions.
  Solving real generalised eigenvalue problem by standard LAPACK (fast)

  Obtaining occupation numbers and chemical potential using ELSI.
  | Chemical potential (Fermi level):    -5.39265969 eV
  Writing Kohn-Sham eigenvalues.
  K-point:       1 at    0.000000    0.000000    0.000000 (in units of recip. lattice)

  State    Occupation    Eigenvalue [Ha]    Eigenvalue [eV]
      1       2.00000         -65.634095        -1785.99459
      2       2.00000         -65.634094        -1785.99458
      3       2.00000         -65.633990        -1785.99173
      4       2.00000         -65.633987        -1785.99166
      5       2.00000         -65.633987        -1785.99166
      6       2.00000         -65.633986        -1785.99164
      7       2.00000         -65.633881        -1785.98876
      8       2.00000         -65.633880        -1785.98875
      9       2.00000          -5.121866         -139.37307
     10       2.00000          -5.121807         -139.37147
     11       2.00000          -5.121684         -139.36811
     12       2.00000          -5.121681         -139.36804
     13       2.00000          -5.121681         -139.36804
     14       2.00000          -5.121679         -139.36797
     15       2.00000          -5.121557         -139.36466
     16       2.00000          -5.121493         -139.36291
     17       2.00000          -3.514868          -95.64442
     18       2.00000          -3.514828          -95.64334
     19       2.00000          -3.514810          -95.64285
     20       2.00000          -3.514807          -95.64276
     21       2.00000          -3.514796          -95.64247
     22       2.00000          -3.514719          -95.64038
     23       2.00000          -3.514712          -95.64019
     24       2.00000          -3.514669          -95.63901
     25       2.00000          -3.514635          -95.63809
     26       2.00000          -3.514391          -95.63144
     27       2.00000          -3.514380          -95.63115
     28       2.00000          -3.514378          -95.63109
     29       2.00000          -3.514378          -95.63109
     30       2.00000          -3.514372          -95.63092
     31       2.00000          -3.514365          -95.63072
     32       2.00000          -3.514109          -95.62376
     33       2.00000          -3.514088          -95.62320
     34       2.00000          -3.514045          -95.62204
     35       2.00000          -3.514033          -95.62170
     36       2.00000          -3.513958          -95.61968
     37       2.00000          -3.513953          -95.61953
     38       2.00000          -3.513945          -95.61930
     39       2.00000          -3.513930          -95.61890
     40       2.00000          -3.513904          -95.61819
     41       2.00000          -0.661085          -17.98903
     42       2.00000          -0.511908          -13.92972
     43       2.00000          -0.511580          -13.92081
     44       2.00000          -0.511232          -13.91133
     45       2.00000          -0.511231          -13.91132
     46       2.00000          -0.510887          -13.90194
     47       2.00000          -0.510556          -13.89294
     48       2.00000          -0.327441           -8.91012
     49       2.00000          -0.327128           -8.90160
     50       2.00000          -0.327103           -8.90093
     51       2.00000          -0.327100           -8.90086
     52       2.00000          -0.327079           -8.90027
     53       2.00000          -0.326767           -8.89178
     54       2.00000          -0.227231           -6.18327
     55       2.00000          -0.226757           -6.17037
     56       2.00000          -0.226280           -6.15740
     57       0.00000          -0.191746           -5.21766
     58       0.00000          -0.191617           -5.21416
     59       0.00000          -0.191334           -5.20647
     60       0.00000          -0.191333           -5.20645
     61       0.00000          -0.191056           -5.19889
     62       0.00000          -0.190925           -5.19534
     63       0.00000          -0.124341           -3.38349
     64       0.00000          -0.124081           -3.37643
     65       0.00000          -0.123825           -3.36946
     66       0.00000          -0.101233           -2.75469
     67       0.00000           0.070260            1.91187
     68       0.00000           0.070264            1.91198
     69       0.00000           0.136533            3.71526
     70       0.00000           0.151211            4.11465
     71       0.00000           0.151518            4.12302
     72       0.00000           0.151655            4.12674
     73       0.00000           0.151692            4.12774
     74       0.00000           0.151783            4.13022
     75       0.00000           0.152100            4.13885
     76       0.00000           0.186726            5.08107
     77       0.00000           0.187376            5.09877
     78       0.00000           0.187431            5.10025
     79       0.00000           0.187435            5.10035
     80       0.00000           0.187497            5.10205

  What follows are estimated values for band gap, HOMO, LUMO, etc.
  | They are estimated on a discrete k-point grid and not necessarily exact.
  | For converged numbers, create a DOS and/or band structure plot on a denser k-grid.

  Highest occupied state (VBM) at     -6.15740338 eV (relative to internal zero)
  | Occupation number:      2.00000000
  | K-point:       1 at    0.000000    0.000000    0.000000 (in units of recip. lattice)

  Lowest unoccupied state (CBM) at    -5.21766296 eV (relative to internal zero)
  | Occupation number:      0.00000000
  | K-point:       1 at    0.000000    0.000000    0.000000 (in units of recip. lattice)

  ESTIMATED overall HOMO-LUMO gap:      0.93974042 eV between HOMO at k-point 1 and LUMO at k-point 1
  | This appears to be a direct band gap.
  The gap value is above 0.2 eV. Unless you are using a very sparse k-point grid,
  this system is most likely an insulator or a semiconductor.
  Calculating total energy contributions from superposition of free atom densities.

  Total energy components:
  | Sum of eigenvalues            :       -1313.84946076 Ha      -35751.66285198 eV
  | XC energy correction          :        -162.68189339 Ha       -4426.79955215 eV
  | XC potential correction       :         212.23914714 Ha        5775.32103870 eV
  | Free-atom electrostatic energy:       -1054.42481607 Ha      -28692.35909650 eV
  | Hartree energy correction     :           0.00000000 Ha           0.00000000 eV
  | Entropy correction            :          -0.00000000 Ha          -0.00000000 eV
  | ---------------------------
  | Total energy                  :       -2318.71702309 Ha      -63095.50046193 eV
  | Total energy, T -> 0          :       -2318.71702309 Ha      -63095.50046193 eV  <-- do not rely on this value for anything but (periodic) metals
  | Electronic free energy        :       -2318.71702309 Ha      -63095.50046193 eV

  Derived energy quantities:
  | Kinetic energy                :        2329.26165118 Ha       63382.43439131 eV
  | Electrostatic energy          :       -4485.29678088 Ha     -122051.13530109 eV
  | Energy correction for multipole
  | error in Hartree potential    :           0.00000000 Ha           0.00000000 eV
  | Sum of eigenvalues per atom                           :       -4468.95785650 eV
  | Total energy (T->0) per atom                          :       -7886.93755774 eV  <-- do not rely on this value for anything but (periodic) metals
  | Electronic free energy per atom                       :       -7886.93755774 eV
  Initialize hartree_potential_storage
  Max. number of atoms included in rho_multipole:            8

  End scf initialization - timings             :  max(cpu_time)    wall_clock(cpu1)
  | Time for scf. initialization               :        0.983 s           0.983 s
  | Boundary condition initialization          :        0.051 s           0.051 s
  | Integration                                :        0.593 s           0.593 s
  | Solution of K.-S. eqns.                    :        0.016 s           0.015 s
  | Grid partitioning                          :        0.047 s           0.047 s
  | Preloading free-atom quantities on grid    :        0.001 s           0.001 s
  | Free-atom superposition energy             :        0.040 s           0.040 s
  | Total energy evaluation                    :        0.000 s           0.000 s

  Partial memory accounting:
  | Current value for overall tracked memory usage on task 0  :           3.194 MB
  | Peak value for overall tracked memory usage on task 0     :           6.662 MB after allocating wave_s
  | Largest tracked array allocation on task 0 so far         :           1.767 MB  when allocating hamiltonian_shell
  Note:  These values currently only include a subset of arrays which are explicitly tracked.
  The "true" memory usage will be greater.
------------------------------------------------------------
Convergence:    q app. |  density  | eigen (eV) | Etot (eV) | forces (eV/A) |       CPU time |     Clock time
  SCF    1 :  0.21E-01 |  0.22E+00 |   0.36E+02 |  0.56E+00 |             . |        1.942 s |        1.942 s
  SCF    2 :  0.21E-01 |  0.11E+00 |   0.26E+02 |  0.12E+00 |             . |        2.117 s |        2.118 s
  SCF    3 :  0.19E-01 |  0.16E-01 |  -0.15E+02 |  0.16E-01 |             . |        1.834 s |        1.835 s
  SCF    4 :  0.19E-01 |  0.37E-02 |   0.11E+01 |  0.37E-03 |             . |        1.769 s |        1.769 s
  SCF    5 :  0.19E-01 |  0.10E-02 |  -0.10E+01 |  0.82E-03 |             . |        1.757 s |        1.757 s
  SCF    6 :  0.20E-01 |  0.10E-03 |  -0.47E-01 |  0.51E-05 |             . |        1.774 s |        1.774 s
  SCF    7 :  0.20E-01 |  0.31E-04 |  -0.18E-01 | -0.87E-06 |             . |        1.780 s |        1.781 s
  SCF    8 :  0.20E-01 |  0.48E-05 |   0.14E-02 | -0.46E-06 |             . |        1.787 s |        1.787 s
  SCF    9 :  0.20E-01 |  0.19E-05 |  -0.88E-03 |  0.32E-07 |             . |        1.789 s |        1.789 s
  SCF   10 :  0.20E-01 |  0.31E-06 |   0.79E-04 |  0.31E-07 |             . |        1.787 s |        1.787 s
  SCF   11 :  0.20E-01 |  0.70E-07 |   0.14E-04 | -0.50E-08 |      0.54E-01 |        7.962 s |        7.962 s

  Total energy components:
  | Sum of eigenvalues            :       -1312.10904534 Ha      -35704.30373858 eV
  | XC energy correction          :        -162.84130194 Ha       -4431.13727955 eV
  | XC potential correction       :         212.44129016 Ha        5780.82163032 eV
  | Free-atom electrostatic energy:       -1054.42481607 Ha      -28692.35909650 eV
  | Hartree energy correction     :          -1.75722893 Ha         -47.81663201 eV
  | Entropy correction            :          -0.00000000 Ha          -0.00000000 eV
  | ---------------------------
  | Total energy                  :       -2318.69110211 Ha      -63094.79511630 eV
  | Total energy, T -> 0          :       -2318.69110211 Ha      -63094.79511630 eV  <-- do not rely on this value for anything but (periodic) metals
  | Electronic free energy        :       -2318.69110211 Ha      -63094.79511630 eV

  Derived energy quantities:
  | Kinetic energy                :        2327.99887227 Ha       63348.07242889 eV
  | Electrostatic energy          :       -4483.84867244 Ha     -122011.73026565 eV
  | Energy correction for multipole
  | error in Hartree potential    :           0.06043363 Ha           1.64448288 eV
  | Sum of eigenvalues per atom                           :       -4463.03796732 eV
  | Total energy (T->0) per atom                          :       -7886.84938954 eV  <-- do not rely on this value for anything but (periodic) metals
  | Electronic free energy per atom                       :       -7886.84938954 eV
  What follows are estimated values for band gap, HOMO, LUMO, etc.
  | They are estimated on a discrete k-point grid and not necessarily exact.
  | For converged numbers, create a DOS and/or band structure plot on a denser k-grid.

  Highest occupied state (VBM) at     -5.64376497 eV (relative to internal zero)
  | Occupation number:      2.00000000
  | K-point:       1 at    0.000000    0.000000    0.000000 (in units of recip. lattice)

  Lowest unoccupied state (CBM) at    -5.03516305 eV (relative to internal zero)
  | Occupation number:      0.00000000
  | K-point:       1 at    0.000000    0.000000    0.000000 (in units of recip. lattice)

  ESTIMATED overall HOMO-LUMO gap:      0.60860192 eV between HOMO at k-point 1 and LUMO at k-point 1
  | This appears to be a direct band gap.
  The gap value is above 0.2 eV. Unless you are using a very sparse k-point grid,
  this system is most likely an insulator or a semiconductor.

  Self-consistency cycle converged.

  Removing unitary transformations (pure translations, rotations) from forces on atoms.
  Atomic forces before filtering:
  | Net force on center of mass :  -0.143866E-06  0.877244E-09 -0.156335E-07 eV/A
  Atomic forces after filtering:
  | Net force on center of mass :  -0.223008E-16  0.000000E+00  0.000000E+00 eV/A

  Energy and forces in a compact form:
  | Total energy uncorrected      :         -0.630947951163021E+05 eV
  | Total energy corrected        :         -0.630947951163021E+05 eV  <-- do not rely on this value for anything but (periodic) metals
  | Electronic free energy        :         -0.630947951163021E+05 eV
  Total atomic forces (unitary forces cleaned) [eV/Ang]:
  |   1         -0.133695014208210E+00          0.666480800831471E-08          0.421675129918584E-09
  |   2         -0.201415707277518E-01          0.689232368516867E-08          0.104527752972002E-08
  |   3          0.500745266583590E-02         -0.282742718737959E-08         -0.817969435908308E-08
  |   4          0.500744730614595E-02         -0.917574932405223E-09         -0.193409115644444E-08
  |   5          0.361786608646722E-01          0.259217903787324E-01          0.259217982807246E-01
  |   6          0.361786533635331E-01         -0.259217952217630E-01         -0.259217907974176E-01
  |   7          0.357321854143287E-01         -0.252007545205849E-01          0.252007519219695E-01
  |   8          0.357321853214459E-01          0.252007495514859E-01         -0.252007507584436E-01

  Removing unitary transformations (pure translations, rotations) from forces on atoms.
  Atomic forces before filtering:
  | Net force on center of mass :  -0.223008E-16  0.000000E+00  0.000000E+00 eV/A
  Atomic forces after filtering:
  | Net force on center of mass :  -0.223008E-16  0.000000E+00  0.000000E+00 eV/A
  @ DRIVER - WARNING: the stress tensor will not be computed
 ------------------------------------------------------------------------
 Atomic structure that was used in the preceding time step of the wrapper
                         x [A]             y [A]             z [A]
  lattice_vector         5.43999999        0.00000000        0.00000000
  lattice_vector         0.00000000        5.43999999        0.00000000
  lattice_vector         0.00000000        0.00000000        5.43999999

            atom         0.01000000        0.00000000        0.00000000  Si
            atom        -0.00000000        2.72000000        2.72000000  Si
            atom         2.72000000        0.00000000        2.72000000  Si
            atom         2.72000000        2.72000000        0.00000000  Si
            atom         1.36000000        1.36000000        1.36000000  Si
            atom         1.36000000       -1.36000000       -1.36000000  Si
            atom        -1.36000000        1.36000000       -1.36000000  Si
            atom        -1.36000000       -1.36000000        1.36000000  Si
 ------------------------------------------------------------------------
  @ DRIVER MODE: Message from server: STATUS      
  @ DRIVER MODE: Message from server: GETFORCE    
  @ DRIVER MODE: Returning v,forces,stress 

------------------------------------------------------------------------------
  Final output of selected total energy values:

  The following output summarizes some interesting total energy values
  at the end of a run (AFTER all relaxation, molecular dynamics, etc.).

  | Total energy of the DFT / Hartree-Fock s.c.f. calculation      :         -63094.795116302 eV
  | Final zero-broadening corrected energy (caution - metals only) :         -63094.795116302 eV
  | For reference only, the value of 1 Hartree used in FHI-aims is :             27.211384500 eV
  | For reference only, the overall average (free atom contribution
  | + realspace contribution) of the electrostatic potential after
  | s.c.f. convergence is                                          :            -12.767749403 eV

  Before relying on these values, please be sure to understand exactly which
  total energy value is referred to by a given number. Different objects may
  all carry the same name 'total energy'. Definitions:

  Total energy of the DFT / Hartree-Fock s.c.f. calculation:
  | Note that this energy does not include ANY quantities calculated after the
  | s.c.f. cycle, in particular not ANY RPA, MP2, etc. many-body perturbation terms.

  Final zero-broadening corrected energy:
  | For metallic systems only, a broadening of the occupation numbers at the Fermi
  | level can be extrapolated back to zero broadening by an electron-gas inspired
  | formula. For all systems that are not real metals, this value can be
  | meaningless and should be avoided.

------------------------------------------------------------------------------
  Methods described in the following list of references were used in this FHI-aims run.
  If you publish the results, please make sure to cite these reference if they apply.
  FHI-aims is an academic code, and for our developers (often, Ph.D. students
  and postdocs), scientific credit in the community is essential.
  Thank you for helping us!

  For any use of FHI-aims, please cite:

    Volker Blum, Ralf Gehrke, Felix Hanke, Paula Havu, Ville Havu,
    Xinguo Ren, Karsten Reuter, and Matthias Scheffler
    'Ab initio molecular simulations with numeric atom-centered orbitals'
    Computer Physics Communications 180, 2175-2196 (2009)
    http://dx.doi.org/10.1016/j.cpc.2009.06.022


  The provided symmetry information was generated with SPGlib:

    Atsushi Togo, Yusuke Seto, Dimitar Pashov
    SPGlib 1.7.3 obtained from http://spglib.sourceforge.net
    Copyright (C) 2008 Atsushi Togo


  For the real-space grid partitioning and parallelization used in this calculation, please cite:

    Ville Havu, Volker Blum, Paula Havu, and Matthias Scheffler,
    'Efficient O(N) integration for all-electron electronic structure calculation'
    'using numerically tabulated basis functions'
    Journal of Computational Physics 228, 8367-8379 (2009).
    http://dx.doi.org/10.1016/j.jcp.2009.08.008

  Of course, there are many other important community references, e.g., those cited in the
  above references. Our list is limited to references that describe implementations in the
  FHI-aims code. The reason is purely practical (length of this list) - please credit others as well.

------------------------------------------------------------
          Leaving FHI-aims.
          Date     :  20181117, Time     :  012224.880

          Computational steps:
          | Number of self-consistency cycles          :           11
          | Number of SCF (re)initializations          :            1

          Detailed time accounting                     :  max(cpu_time)    wall_clock(cpu1)
          | Total time                                 :       27.503 s          27.505 s
          | Preparation time                           :        0.122 s           0.121 s
          | Boundary condition initalization           :        0.051 s           0.051 s
          | Grid partitioning                          :        0.047 s           0.047 s
          | Preloading free-atom quantities on grid    :        0.001 s           0.001 s
          | Free-atom superposition energy             :        0.040 s           0.040 s
          | Total time for integrations                :        4.745 s           4.744 s
          | Total time for solution of K.-S. equations :        0.079 s           0.080 s
          | Total time for density & force components  :       12.483 s          12.484 s
          | Total time for mixing & preconditioning    :        2.730 s           2.732 s
          | Total time for Hartree multipole update    :        0.016 s           0.016 s
          | Total time for Hartree multipole sum       :        6.849 s           6.850 s
          | Total time for total energy evaluation     :        0.001 s           0.001 s
          | Total time for scaled ZORA corrections     :        0.000 s           0.000 s

          Partial memory accounting:
          | Residual value for overall tracked memory usage across tasks :     0.000000 MB (should be 0.000000 MB)
          | Peak values for overall tracked memory usage (after allocating d_wave):
          |   Minimum:       11.446 MB (on task 3)
          |   Maximum:       11.730 MB (on task 1)
          |   Average:       11.571 MB
          | Largest tracked array allocation (hessian_basis_wave):
          |   Minimum:        1.974 MB (on task 3)
          |   Maximum:        2.030 MB (on task 1)
          |   Average:        1.999 MB
          Note:  These values currently only include a subset of arrays which are explicitly tracked.
          The "true" memory usage will be greater.

------------------------------------------------------------
