   2    8
1 1
    13.713909625662000     0.000000000000000     0.000000000000000
     0.000000000000000    13.713909625662000     0.000000000000000
     0.000000000000000     0.000000000000000    13.713909625662000
1 2
     0.000000000000000     0.000000000000000     0.000000000000000
     0.000000000000000     0.000000000000000     0.000000000000000
     0.000000000000000     0.000000000000000     0.000000000000000
1 3
     0.000000000000000     0.000000000000000     0.000000000000000
     0.000000000000000     0.000000000000000     0.000000000000000
     0.000000000000000     0.000000000000000     0.000000000000000
1 4
     0.000000000000000     0.000000000000000     0.000000000000000
     0.000000000000000     0.000000000000000     0.000000000000000
     0.000000000000000     0.000000000000000     0.000000000000000
1 5
    -3.428477406415500    -2.494571276648870    -2.494571276648870
    -2.494571276648870    -3.428477406415500    -2.494571276648870
    -2.494571276648870    -2.494571276648870    -3.428477406415500
1 6
    -3.428477406415500     2.494571276648870     2.494571276648870
     2.494571276648870    -3.428477406415500    -2.494571276648870
     2.494571276648870    -2.494571276648870    -3.428477406415500
1 7
    -3.428477406415500     2.494571276648870    -2.494571276648870
     2.494571276648870    -3.428477406415500     2.494571276648870
    -2.494571276648870     2.494571276648870    -3.428477406415500
1 8
    -3.428477406415500    -2.494571276648870     2.494571276648870
    -2.494571276648870    -3.428477406415500     2.494571276648870
     2.494571276648870     2.494571276648870    -3.428477406415500
2 1
    -3.428477406415500    -2.494571276648870    -2.494571276648870
    -2.494571276648870    -3.428477406415500    -2.494571276648870
    -2.494571276648870    -2.494571276648870    -3.428477406415500
2 2
    -3.428477406415500     2.494571276648870     2.494571276648870
     2.494571276648870    -3.428477406415500    -2.494571276648870
     2.494571276648870    -2.494571276648870    -3.428477406415500
2 3
    -3.428477406415500     2.494571276648870    -2.494571276648870
     2.494571276648870    -3.428477406415500     2.494571276648870
    -2.494571276648870     2.494571276648870    -3.428477406415500
2 4
    -3.428477406415500    -2.494571276648870     2.494571276648870
    -2.494571276648870    -3.428477406415500     2.494571276648870
     2.494571276648870     2.494571276648870    -3.428477406415500
2 5
    13.713909625662000     0.000000000000000     0.000000000000000
     0.000000000000000    13.713909625662000     0.000000000000000
     0.000000000000000     0.000000000000000    13.713909625662000
2 6
     0.000000000000000     0.000000000000000     0.000000000000000
     0.000000000000000     0.000000000000000     0.000000000000000
     0.000000000000000     0.000000000000000     0.000000000000000
2 7
     0.000000000000000     0.000000000000000     0.000000000000000
     0.000000000000000     0.000000000000000     0.000000000000000
     0.000000000000000     0.000000000000000     0.000000000000000
2 8
     0.000000000000000     0.000000000000000     0.000000000000000
     0.000000000000000     0.000000000000000     0.000000000000000
     0.000000000000000     0.000000000000000     0.000000000000000