  MPI-parallelism will be employed.
------------------------------------------------------------
          Invoking FHI-aims ...

          When using FHI-aims, please cite the following reference:

          Volker Blum, Ralf Gehrke, Felix Hanke, Paula Havu,
          Ville Havu, Xinguo Ren, Karsten Reuter, and Matthias Scheffler,
          'Ab Initio Molecular Simulations with Numeric Atom-Centered Orbitals',
          Computer Physics Communications 180, 2175-2196 (2009)

          For any questions about FHI-aims, please visit the aimsclub website
          with its forums and wiki. Contributions to both the forums and the
          wiki are warmly encouraged - they are for you, and everyone is welcome there.

------------------------------------------------------------



  Date     :  20181120, Time     :  153501.571
  Time zero on CPU 1             :   0.223050000000000E-01  s.
  Internal wall clock time zero  :           311960101.571  s.

  FHI-aims created a unique identifier for this run for later identification
  aims_uuid : CD7D7194-40EE-4274-A2E7-DFB7B576F80D

  Build configuration of the current instance of FHI-aims
  -------------------------------------------------------
  FHI-aims version      : 181025
  Commit number         : 436c0fce9
  CMake host system     : Linux-4.15.0-38-generic
  CMake version         : 3.5.1
  Fortran compiler      : /home/knoop/local/openmpi-3.0.0/build/bin/mpifort (Intel) version 17.0.1.20161005
  Fortran compiler flags: -O3 -ip -fp-model precise -xHOST
  C compiler            : /usr/bin/gcc (GNU) version 8.1.0
  C compiler flags      : -O3
  Architecture          :
  Using MPI
  Using C files
  Using SPGlib
  Using i-PI
  Linking against: /home/knoop/local/anaconda3/pkgs/mkl-2019.0-118/lib/libmkl_intel_lp64.so
                   /home/knoop/local/anaconda3/pkgs/mkl-2019.0-118/lib/libmkl_sequential.so
                   /home/knoop/local/anaconda3/pkgs/mkl-2019.0-118/lib/libmkl_core.so
                   /home/knoop/local/anaconda3/pkgs/mkl-2019.0-118/lib/libmkl_blacs_intelmpi_lp64.so
                   /home/knoop/local/anaconda3/pkgs/mkl-2019.0-118/lib/libmkl_scalapack_lp64.so

  Using        4 parallel tasks.
  Task        0 on host theobook135 reporting.
  Task        1 on host theobook135 reporting.
  Task        2 on host theobook135 reporting.
  Task        3 on host theobook135 reporting.

  Performing system and environment tests:
  *** Environment variable OMP_NUM_THREADS is not set
  *** For performance reasons you might want to set it to 1
  | Maximum stacksize for task 0: unlimited
  | Maximum stacksize for task 1: unlimited
  | Maximum stacksize for task 2: unlimited
  | Maximum stacksize for task 3: unlimited
  | Current stacksize for task 0: unlimited
  | Current stacksize for task 1: unlimited
  | Current stacksize for task 2: unlimited
  | Current stacksize for task 3: unlimited
  | Checking for scalapack...
  | No scalapack compiled in.

  Obtaining array dimensions for all initial allocations:
  
  -----------------------------------------------------------------------
  Parsing control.in (first pass over file, find array dimensions only).
  The contents of control.in will be repeated verbatim below
  unless switched off by setting 'verbatim_writeout .false.' .
  in the first line of control.in .
  -----------------------------------------------------------------------
  
  #===============================================================================
  # FHI-aims file: ./control.in
  # Created using the Atomic Simulation Environment (ASE)
  # Tue Nov 20 15:35:01 2018
  #
  # List of parameters used to initialize the calculator:
  #     xc : pbesol
  #     relativistic : atomic_zora scalar
  #     k_grid : [2, 2, 2]
  #     output_level : MD_light
  #     compute_forces : True
  #     compute_analytical_stress : False
  #     sc_accuracy_rho : 0.0001
  #     charge_mix_param : 0.5
  #     species_dir : /home/knoop/FHIaims/aimsfiles/species_defaults/light
  #     use_pimd_wrapper : ('localhost', 12345)
  #===============================================================================
  xc                                 pbesol
  relativistic                       atomic_zora scalar
  k_grid                             2 2 2
  output_level                       MD_light
  compute_forces                     .true.
  compute_analytical_stress          .false.
  sc_accuracy_rho                    0.0001
  charge_mix_param                   0.5
  use_pimd_wrapper                   localhost 12345
  #===============================================================================
  
  ################################################################################
  #
  #  FHI-aims code project
  #  VB, Fritz-Haber Institut, 2009
  #
  #  Suggested "light" defaults for Si atom (to be pasted into control.in file)
  #  Be sure to double-check any results obtained with these settings for post-processing,
  #  e.g., with the "tight" defaults and larger basis sets.
  #
  ################################################################################
    species        Si
  #     global species definitions
      nucleus             14
      mass                28.0855
  #
      l_hartree           4
  #
      cut_pot             3.5          1.5  1.0
      basis_dep_cutoff    1e-4
  #
      radial_base         42 5.0
      radial_multiplier   1
      angular_grids       specified
        division   0.5866   50
        division   0.9616  110
        division   1.2249  194
        division   1.3795  302
  #      division   1.4810  434
  #      division   1.5529  590
  #      division   1.6284  770
  #      division   1.7077  974
  #      division   2.4068 1202
  #      outer_grid   974
        outer_grid 302
  ################################################################################
  #
  #  Definition of "minimal" basis
  #
  ################################################################################
  #     valence basis states
      valence      3  s   2.
      valence      3  p   2.
  #     ion occupancy
      ion_occ      3  s   1.
      ion_occ      3  p   1.
  ################################################################################
  #
  #  Suggested additional basis functions. For production calculations,
  #  uncomment them one after another (the most important basis functions are
  #  listed first).
  #
  #  Constructed for dimers: 1.75 A, 2.0 A, 2.25 A, 2.75 A, 3.75 A
  #
  ################################################################################
  #  "First tier" - improvements: -571.96 meV to -37.03 meV
       hydro 3 d 4.2
       hydro 2 p 1.4
  #     hydro 4 f 6.2
       ionic 3 s auto
  #  "Second tier" - improvements: -16.76 meV to -3.03 meV
  #     hydro 3 d 9
  #     hydro 5 g 9.4
  #     hydro 4 p 4
  #     hydro 1 s 0.65
  #  "Third tier" - improvements: -3.89 meV to -0.60 meV
  #     ionic 3 d auto
  #     hydro 3 s 2.6
  #     hydro 4 f 8.4
  #     hydro 3 d 3.4
  #     hydro 3 p 7.8
  #  "Fourth tier" - improvements: -0.33 meV to -0.11 meV
  #     hydro 2 p 1.6
  #     hydro 5 g 10.8
  #     hydro 5 f 11.2
  #     hydro 3 d 1
  #     hydro 4 s 4.5
  #  Further basis functions that fell out of the optimization - noise
  #  level... < -0.08 meV
  #     hydro 4 d 6.6
  #     hydro 5 g 16.4
  #     hydro 4 d 9
  
  -----------------------------------------------------------------------
  Completed first pass over input file control.in .
  -----------------------------------------------------------------------
  
  
  -----------------------------------------------------------------------
  Parsing geometry.in (first pass over file, find array dimensions only).
  The contents of geometry.in will be repeated verbatim below
  unless switched off by setting 'verbatim_writeout .false.' .
  in the first line of geometry.in .
  -----------------------------------------------------------------------
  
  #=======================================================
  # FHI-aims file: ./geometry.in
  # Created using the Atomic Simulation Environment (ASE)
  # Tue Nov 20 15:35:01 2018
  #=======================================================
  lattice_vector 0.0000000000000000 2.7200000000000002 2.7200000000000002
  lattice_vector 2.7200000000000002 0.0000000000000000 2.7200000000000002
  lattice_vector 2.7200000000000002 2.7200000000000002 0.0000000000000000
  atom 0.0177811626505795 0.0122829993908406 0.0114150055381155 Si
  atom 1.3813596479029093 1.3599833742496439 1.3646769330945827 Si
  
  -----------------------------------------------------------------------
  Completed first pass over input file geometry.in .
  -----------------------------------------------------------------------
  

  Basic array size parameters:
  | Number of species                 :        1
  | Number of atoms                   :        2
  | Number of lattice vectors         :        3
  | Max. basis fn. angular momentum   :        2
  | Max. atomic/ionic basis occupied n:        3
  | Max. number of basis fn. types    :        3
  | Max. radial fns per species/type  :        5
  | Max. logarithmic grid size        :     1346
  | Max. radial integration grid size :       42
  | Max. angular integration grid size:      302
  | Max. angular grid division number :        8
  | Radial grid for Hartree potential :     1346
  | Number of spin channels           :        1

------------------------------------------------------------
          Reading file control.in.
------------------------------------------------------------
  XC: Using PBEsol gradient-corrected functionals.
  Scalar relativistic treatment of kinetic energy: on-site free-atom approximation to ZORA.
  Found k-point grid:         2         2         2
  Requested output level: MD_light            
  Forces will be computed.
  Convergence accuracy of self-consistent charge density:  0.1000E-03
  Charge density mixing - mixing parameter:     0.5000
  Using external wrapper (i-PI) for performing (path integral) molecular dynamics
  **Attention: initial geometry.in file will be ignored!
 
  Reading configuration options for species Si                  .
  | Found nuclear charge :  14.0000
  | Found atomic mass :    28.0855000000000      amu
  | Found l_max for Hartree potential  :   4
  | Found cutoff potl. onset [A], width [A], scale factor :    3.50000    1.50000    1.00000
  | Threshold for basis-dependent cutoff potential is   0.100000E-03
  | Found data for basic radial integration grid :    42 points, outermost radius =    5.000 A
  | Found multiplier for basic radial grid :   1
  | Found angular grid specification: user-specified.
  | Specified grid contains     5 separate shells.
  | Check grid settings after all constraints further below.
  | Found free-atom valence shell :  3 s   2.000
  | Found free-atom valence shell :  3 p   2.000
  | Found free-ion valence shell :  3 s   1.000
  | Found free-ion valence shell :  3 p   1.000
  | Found hydrogenic basis function :  3 d   4.200
  | Found hydrogenic basis function :  2 p   1.400
  | Found ionic basis function :  3 s , default cutoff radius.
  Species Si                  : Missing cutoff potential type.
  Defaulting to exp(1/x)/(1-x)^2 type cutoff potential.
  Species Si: No 'logarithmic' tag. Using default grid for free atom:
  | Default logarithmic grid data [bohr] : 0.1000E-03 0.1000E+03 0.1012E+01
  | Will include ionic basis functions of  2.0-fold positive Si                   ion.
  Species Si: On-site basis accuracy parameter (for Gram-Schmidt orthonormalisation) not specified.
  Using default value basis_acc =  0.1000000E-03.
  Species Si                  : Using default innermost maximum threshold i_radial=  2 for radial functions.
  Species Si                  : Default cutoff onset for free atom density etc. : 0.35000000E+01 AA.
  Species Si                  : Basic radial grid will be enhanced according to radial_multiplier =   1, to contain    42 grid points.
 
  Finished reading input file 'control.in'. Consistency checks are next.
 
  MPI_IN_PLACE appears to work with this MPI implementation.
  | Keeping use_mpi_in_place .true. (see manual).
  Target number of points in a grid batch is not set. Defaulting to  100
  Method for grid partitioning is not set. Defaulting to parallel hash+maxmin partitioning.
  Batch size limit is not set. Defaulting to    200
  By default, will store active basis functions for each batch.
  If in need of memory, prune_basis_once .false. can be used to disable this option.
  communication_type for Hartree potential was not specified.
  Defaulting to calc_hartree .
  Defaulting to Pulay charge density mixer.
  Pulay mixer: Number of relevant iterations not set.
  Defaulting to    8 iterations.
  Pulay mixer: Number of initial linear mixing iterations not set.
  Defaulting to    0 iterations.
  Work space size for distributed Hartree potential not set.
  Defaulting to   0.200000E+03 MB.
  Algorithm-dependent basis array size parameters:
  | n_max_pulay                         :        8
  Maximum number of self-consistency iterations not provided.
  Presetting  1000 iterations.
  Presetting      1001 iterations before the initial mixing cycle
  is restarted anyway using the sc_init_iter criterion / keyword.
  Presetting a factor      1.000 between actual scf density residual
  and density convergence criterion sc_accuracy_rho below which sc_init_iter
  takes no effect.
  Geometry relaxation not requested: no relaxation will be performed.
  Force calculation: scf convergence accuracy of forces not set.
  Defaulting to 'sc_accuracy_forces not_checked'.
  Handling of forces: Unphysical translation and rotation will be removed from forces.
  No accuracy limit for integral partition fn. given. Defaulting to  0.1000E-14.
  No threshold value for u(r) in integrations given. Defaulting to  0.1000E-05.
  No occupation type (smearing scheme) given. Defaulting to Gaussian broadening, width =  0.1000E-01 eV.
  The width will be adjusted in iteration number     2 of the first full s.c.f. cycle only.
  S.C.F. convergence parameters will be adjusted in iteration number     2 of the first full s.c.f. cycle only.
  No accuracy for occupation numbers given. Defaulting to  0.1000E-12.
  No threshold value for occupation numbers given. Defaulting to  0.0000E+00.
  No accuracy for fermi level given. Defaulting to  0.1000E-19.
  Maximum # of iterations to find E_F not set. Defaulting to  200.
  Preferred method for the eigenvalue solver ('KS_method') not specified in 'control.in'.
  Defaulting to serial version, 'lapack_fast', since more k-points than CPUs available.
  Will not use alltoall communication since running on < 1024 CPUs.
  Threshold for basis singularities not set.
  Default threshold for basis singularities:  0.1000E-04
  partition_type (choice of integration weights) for integrals was not specified.
  | Using a version of the partition function of Stratmann and coworkers ('stratmann_sparse').
  | At each grid point, the set of atoms used to build the partition table is smoothly restricted to
  | only those atoms whose free-atom density would be non-zero at that grid point.
  Partitioning for Hartree potential was not defined. Using partition_type for integrals.
  | Adjusted default value of keyword multip_moments_threshold to:       0.10000000E-11
  | This value may affect high angular momentum components of the Hartree potential in periodic systems.
  Spin handling was not defined in control.in. Defaulting to unpolarized case.
  Angular momentum expansion for Kerker preconditioner not set explicitly.
  | Using default value of   0
  No explicit requirement for turning off preconditioner.
  | By default, it will be turned off when the charge convergence reaches
  | sc_accuracy_rho  =   0.100000E-03
  No special mixing parameter while Kerker preconditioner is on.
  Using default: charge_mix_param =     0.5000.
  No q(lm)/r^(l+1) cutoff set for long-range Hartree potential.
  | Using default value of  0.100000E-09 .
  | Verify using the multipole_threshold keyword.
  Defaulting to new monopole extrapolation.
  Density update method: automatic selection selected.
  Using density matrix based charge density update.
  Using density matrix based charge density update.
  Using packed matrix style: index .
  Defaulting to use time-reversal symmetry for k-point grid.
------------------------------------------------------------


------------------------------------------------------------
          Reading geometry description geometry.in.
------------------------------------------------------------
  Input structure read successfully.
  The structure contains        2 atoms,  and a total of         28.000 electrons.

  Input geometry:
  | Unit cell:
  |        0.00000000        2.72000000        2.72000000
  |        2.72000000        0.00000000        2.72000000
  |        2.72000000        2.72000000        0.00000000
  | Atomic structure:
  |       Atom                x [A]            y [A]            z [A]
  |    1: Species Si            0.01778116        0.01228300        0.01141501
  |    2: Species Si            1.38135965        1.35998337        1.36467693

  Lattice parameters for 3D lattice (in Angstroms) :     3.846661    3.846661    3.846661
  Angle(s) between unit vectors (in degrees)       :    60.000000   60.000000   60.000000

  |

  | The smallest distance between any two atoms is         2.34669138 AA.
  |
  | The first atom of this pair is atom number                      1 .
  | The second atom of this pair is atom number                     2 .
  | Wigner-Seitz cell of the first atom image           0     0     0 .
  | (The Wigner-Seitz cell of the second atom is 0 0 0  by definition.)

  Symmetry information by spglib:
  | Precision set to  0.1E-04
  | Number of Operations  : 2
  | Space group           : 2
  | International         : P-1      d
  | Schoenflies           : Ci^1

  Quantities derived from the lattice vectors:
  | Reciprocal lattice vector 1: -1.154997  1.154997  1.154997
  | Reciprocal lattice vector 2:  1.154997 -1.154997  1.154997
  | Reciprocal lattice vector 3:  1.154997  1.154997 -1.154997
  | Unit cell volume                               :   0.402473E+02  A^3

  Range separation radius for Ewald summation (hartree_convergence_parameter):      3.89607948 bohr.

  Number of empty states per atom not set in control.in - providing a guess from actual geometry.
  | Total number of empty states used during s.c.f. cycle:        6
  If you use a very high smearing, use empty_states (per atom!) in control.in to increase this value.

  Structure-dependent array size parameters: 
  | Maximum number of distinct radial functions  :        8
  | Maximum number of basis functions            :       36
  | Number of Kohn-Sham states (occupied + empty):       20
------------------------------------------------------------

************************** W A R N I N G *******************************
* You are using the PIMD wrapper. Specifications and positions         *
* in geometry.in will be IGNORED - all is received from the wrapper.   *
* Please make sure species are declared in the same order in           *
* geometry.in and wrapper input.                                       *
************************************************************************


------------------------------------------------------------
          Preparing all fixed parts of the calculation.
------------------------------------------------------------
  Determining machine precision:
    2.225073858507201E-308
  Setting up grids for atomic and cluster calculations.

  Creating wave function, potential, and density for free atoms.

  Species: Si

  List of occupied orbitals and eigenvalues:
    n    l              occ      energy [Ha]    energy [eV]
    1    0           2.0000       -65.767597     -1789.6274
    2    0           2.0000        -5.115610      -139.2028
    3    0           2.0000        -0.388877       -10.5819
    2    1           6.0000        -3.500197       -95.2452
    3    1           2.0000        -0.140803        -3.8315

  Creating fixed part of basis set: Ionic, confined, hydrogenic.
 
  Si                   ion:

  List of free ionic orbitals and eigenvalues:
    n    l      energy [Ha]    energy [eV]
    1    0       -66.641157     -1813.3982
    2    0        -5.964274      -162.2962
    3    0        -1.073878       -29.2217
    2    1        -4.350005      -118.3697
    3    1        -0.776571       -21.1316


  List of ionic basis orbitals and eigenvalues:
    n    l      energy [Ha]    energy [eV]    outer radius [A]
    3    0        -1.073857       -29.2211       4.214062

 
  Si                   hydrogenic:
 
  List of hydrogenic basis orbitals: 
    n    l      effective z      eigenvalue [eV]  inner max. [A]     outer max. [A]     outer radius [A]   
    3    2         4.200000       -26.6624           1.139231           1.139231           4.534782
    2    1         1.400000        -6.4613           1.472672           1.472672           4.590560
 

  Adding cutoff potential to free-atom effective potential.
  Creating atomic-like basis functions for current effective potential.

  Species Si                  :

  List of atomic basis orbitals and eigenvalues:
    n    l      energy [Ha]    energy [eV]    outer radius [A]
    1    0       -65.767597     -1789.6274       0.789468
    2    0        -5.115610      -139.2028       2.815114
    3    0        -0.388877       -10.5819       4.534782
    2    1        -3.500197       -95.2452       3.259919
    3    1        -0.140803        -3.8315       4.590560

  Assembling full basis from fixed parts.
  | Species Si :   atomic orbital   1 s accepted.
  | Species Si :   atomic orbital   2 s accepted.
  | Species Si :    ionic orbital   3 s accepted.
  | Species Si :   atomic orbital   3 s accepted.
  | Species Si :   atomic orbital   2 p accepted.
  | Species Si :   atomic orbital   3 p accepted.
  | Species Si :    hydro orbital   2 p accepted.
  | Species Si :    hydro orbital   3 d accepted.
 
  Basis size parameters after reduction:
  | Total number of radial functions:        8
  | Total number of basis functions :       36
 
  Per-task memory consumption for arrays in subroutine allocate_ext:
  |           2.757868MB.
  Testing on-site integration grid accuracy.
  |  Species  Function  <phi|h_atom|phi> (log., in eV)  <phi|h_atom|phi> (rad., in eV)
           1        1              -1789.6273740966              -1789.6266345813
           1        2               -139.2028173376               -139.2028132357
           1        3                -10.2237226190                -10.2235219160
           1        4                  5.6355365073                  5.5558633521 ***
           1        5                -95.2452114632                -95.2452114537
           1        6                 -3.8413965043                 -3.8571292824
           1        7                  6.4035522332                  6.2277973139 ***
           1        8                  6.3860095444                  6.3839142324
 * Note: Onsite integrals marked "***" above are less accurate than
 * onsite_accuracy_threshold =    0.03000 eV. Usually, this is harmless.
 * When in doubt, tighten the "radial" and/or "radial_multiplier" flags to check.

  Preparing densities etc. for the partition functions (integrals / Hartree potential).

  Preparations completed.
  max(cpu_time)          :      0.137 s.
  Wall clock time (cpu1) :      0.138 s.
------------------------------------------------------------

************************** W A R N I N G *******************************
* Skipping the SCF initialization for now - done inside wrapper      *
************************************************************************

  @ DRIVER MODE: Connecting to host:port localhost       12345
  @ DRIVER MODE: Message from server: STATUS      
  @ DRIVER MODE: Message from server: POSDATA     
  @ DRIVER MODE: Received positions 

------------------------------------------------------------
          Begin self-consistency loop: Initialization.

          Date     :  20181120, Time     :  153501.762
------------------------------------------------------------

  Initializing index lists of integration centers etc. from given atomic structure:
  Mapping all atomic coordinates to central unit cell.

  Initializing the k-points
          Using symmetry for reducing the k-points
  | k-points reduced from:        8 to        8
  | Number of k-points                             :         8
  The eigenvectors in the calculations are REAL.
  | K-points in task   0:         2
  | K-points in task   1:         2
  | K-points in task   2:         2
  | K-points in task   3:         2
  | Number of basis functions in the Hamiltonian integrals :      1461
  | Number of basis functions in a single unit cell        :        36
  | Number of centers in hartree potential         :       732
  | Number of centers in hartree multipole         :       318
  | Number of centers in electron density summation:       198
  | Number of centers in basis integrals           :       228
  | Number of centers in integrals                 :       101
  | Number of centers in hamiltonian               :       198
  | Consuming         14 KiB for k_phase.
  | Number of super-cells (origin) [n_cells]                     :        2197
  | Number of super-cells (after PM_index) [n_cells]             :         112
  | Number of super-cells in hamiltonian [n_cells_in_hamiltonian]:         112
  | Size of matrix packed + index [n_hamiltonian_matrix_size] :       42711
  Partitioning the integration grid into batches with parallel hashing+maxmin method.
  | Number of batches:      138
  | Maximal batch size:     107
  | Minimal batch size:      50
  | Average batch size:      81.217
  | Standard deviation of batch sizes:      14.542

  Integration load balanced across     4 MPI tasks.
  Work distribution over tasks is as follows:
  Task     0 has       2756 integration points.
  Task     1 has       2807 integration points.
  Task     2 has       2807 integration points.
  Task     3 has       2838 integration points.
  Initializing partition tables, free-atom densities, potentials, etc. across the integration grid (initialize_grid_storage).
  | initialize_grid_storage: Actual outermost partition radius vs. multipole_radius_free
  | (-- VB: in principle, multipole_radius_free should be larger, hence this output)
  | Species        1: Confinement radius =              4.999999999999999 AA, multipole_radius_free =              5.000694715736543 AA.
  | Species        1: outer_partition_radius set to              5.000694715736543 AA .
  | The sparse table of interatomic distances needs        255.65 kbyte instead of       415.87 kbyte of memory.
  | Net number of integration points:    11208
  | of which are non-zero points    :     9804
  | Numerical average free-atom electrostatic potential    :    -13.06159805 eV
  Renormalizing the initial density to the exact electron count on the 3D integration grid.
  | Initial density: Formal number of electrons (from input files) :      28.0000000000
  | Integrated number of electrons on 3D grid     :      28.0049089595
  | Charge integration error                      :       0.0049089595
  | Normalization factor for density and gradient :       0.9998247107
  Obtaining max. number of non-zero basis functions in each batch (get_n_compute_maxes).
  | Maximal number of non-zero basis functions:      463 in task     0
  | Maximal number of non-zero basis functions:      459 in task     1
  | Maximal number of non-zero basis functions:      460 in task     2
  | Maximal number of non-zero basis functions:      450 in task     3
  Allocating        0.012 MB for KS_eigenvector
  Integrating Hamiltonian matrix: batch-based integration.
  Time summed over all CPUs for integration: real work        0.412 s, elapsed        0.418 s
  Integrating overlap matrix.
  Time summed over all CPUs for integration: real work        0.251 s, elapsed        0.266 s
  Decreasing sparse matrix size:
   Tolerance:  9.999999824516700E-014
   Hamiltonian matrix
  | Array has    38608 nonzero elements out of    42711 elements
  | Sparsity factor is 0.096
   Overlap matrix
  | Array has    37464 nonzero elements out of    42711 elements
  | Sparsity factor is 0.123
  New size of hamiltonian matrix:       38609

  Updating Kohn-Sham eigenvalues, eigenvectors, occupation numbers, and Fermi level.
  Solving generalized eigenproblem
  Updating Kohn-Sham eigenvalues and eigenfunctions.
  Transforming overlap matrix and checking for singularities.
  Solving real generalised eigenvalue problem by standard LAPACK (fast)
  Overlap matrix is nonsingular:
  | Lowest eigenvalue at k-point        1:  0.509928E-02
  Updating Kohn-Sham eigenvalues and eigenfunctions.
  Solving real generalised eigenvalue problem by standard LAPACK (fast)

  Obtaining occupation numbers and chemical potential using ELSI.
  | Chemical potential (Fermi level):    -5.38774781 eV
  Writing Kohn-Sham eigenvalues.
  K-point:       1 at    0.000000    0.000000    0.000000 (in units of recip. lattice)

  State    Occupation    Eigenvalue [Ha]    Eigenvalue [eV]
      1       2.00000         -65.633994        -1785.99185
      2       2.00000         -65.633992        -1785.99180
      3       2.00000          -5.121823         -139.37189
      4       2.00000          -5.121546         -139.36435
      5       2.00000          -3.514780          -95.64202
      6       2.00000          -3.514714          -95.64025
      7       2.00000          -3.514595          -95.63700
      8       2.00000          -3.514120          -95.62408
      9       2.00000          -3.514084          -95.62308
     10       2.00000          -3.514016          -95.62125
     11       2.00000          -0.661091          -17.98921
     12       2.00000          -0.229180           -6.23632
     13       2.00000          -0.227305           -6.18527
     14       2.00000          -0.223763           -6.08891
     15       0.00000          -0.125699           -3.42045
     16       0.00000          -0.123811           -3.36906
     17       0.00000          -0.122776           -3.34090
     18       0.00000          -0.101240           -2.75489
     19       0.00000           0.070262            1.91193
     20       0.00000           0.070300            1.91295

  What follows are estimated values for band gap, HOMO, LUMO, etc.
  | They are estimated on a discrete k-point grid and not necessarily exact.
  | For converged numbers, create a DOS and/or band structure plot on a denser k-grid.

  Highest occupied state (VBM) at     -6.08890969 eV (relative to internal zero)
  | Occupation number:      2.00000000
  | K-point:       1 at    0.000000    0.000000    0.000000 (in units of recip. lattice)

  Lowest unoccupied state (CBM) at    -5.23650485 eV (relative to internal zero)
  | Occupation number:      0.00000000
  | K-point:       6 at    0.500000    0.000000    0.500000 (in units of recip. lattice)

  ESTIMATED overall HOMO-LUMO gap:      0.85240484 eV between HOMO at k-point 1 and LUMO at k-point 6
  | This appears to be an indirect band gap.
  | Smallest direct gap :      2.66845553 eV for k_point 1 at    0.500000    0.000000    0.500000 (in units of recip. lattice)
  The gap value is above 0.2 eV. Unless you are using a very sparse k-point grid,
  this system is most likely an insulator or a semiconductor.
  Calculating total energy contributions from superposition of free atom densities.

  Total energy components:
  | Sum of eigenvalues            :        -328.38068088 Ha       -8935.69296992 eV
  | XC energy correction          :         -40.67050737 Ha       -1106.70081372 eV
  | XC potential correction       :          53.05983200 Ha        1443.83149012 eV
  | Free-atom electrostatic energy:        -263.60602559 Ha       -7173.08491881 eV
  | Hartree energy correction     :           0.00000000 Ha           0.00000000 eV
  | Entropy correction            :          -0.00000000 Ha          -0.00000000 eV
  | ---------------------------
  | Total energy                  :        -579.59738184 Ha      -15771.64721233 eV
  | Total energy, T -> 0          :        -579.59738184 Ha      -15771.64721233 eV  <-- do not rely on this value for anything but (periodic) metals
  | Electronic free energy        :        -579.59738184 Ha      -15771.64721233 eV

  Derived energy quantities:
  | Kinetic energy                :         582.39735091 Ha       15847.83824742 eV
  | Electrostatic energy          :       -1121.32422538 Ha      -30512.78464603 eV
  | Energy correction for multipole
  | error in Hartree potential    :           0.00000000 Ha           0.00000000 eV
  | Sum of eigenvalues per atom                           :       -4467.84648496 eV
  | Total energy (T->0) per atom                          :       -7885.82360617 eV  <-- do not rely on this value for anything but (periodic) metals
  | Electronic free energy per atom                       :       -7885.82360617 eV
  Initialize hartree_potential_storage
  Max. number of atoms included in rho_multipole:            2

  End scf initialization - timings             :  max(cpu_time)    wall_clock(cpu1)
  | Time for scf. initialization               :        0.304 s           0.304 s
  | Boundary condition initialization          :        0.041 s           0.041 s
  | Integration                                :        0.172 s           0.172 s
  | Solution of K.-S. eqns.                    :        0.003 s           0.002 s
  | Grid partitioning                          :        0.015 s           0.015 s
  | Preloading free-atom quantities on grid    :        0.002 s           0.001 s
  | Free-atom superposition energy             :        0.010 s           0.010 s
  | Total energy evaluation                    :        0.000 s           0.001 s

  Partial memory accounting:
  | Current value for overall tracked memory usage on task 0  :           0.784 MB
  | Peak value for overall tracked memory usage on task 0     :           4.178 MB after allocating wave_s
  | Largest tracked array allocation on task 0 so far         :           1.715 MB  when allocating hamiltonian_shell
  Note:  These values currently only include a subset of arrays which are explicitly tracked.
  The "true" memory usage will be greater.
------------------------------------------------------------
Convergence:    q app. |  density  | eigen (eV) | Etot (eV) | forces (eV/A) |       CPU time |     Clock time
  SCF    1 :  0.51E-02 |  0.14E+00 |   0.15E+02 |  0.28E+00 |             . |        0.558 s |        0.558 s
  SCF    2 :  0.54E-02 |  0.70E-01 |   0.12E+02 |  0.59E-01 |             . |        0.575 s |        0.575 s
  SCF    3 :  0.55E-02 |  0.99E-02 |  -0.37E+01 |  0.51E-02 |             . |        0.865 s |        0.865 s
  SCF    4 :  0.52E-02 |  0.22E-02 |  -0.17E+00 |  0.79E-03 |             . |        0.742 s |        0.742 s
  SCF    5 :  0.51E-02 |  0.32E-03 |  -0.97E-01 |  0.39E-04 |             . |        0.535 s |        0.535 s
  SCF    6 :  0.50E-02 |  0.36E-04 |  -0.14E-01 | -0.34E-05 |             . |        0.539 s |        0.539 s
  SCF    7 :  0.50E-02 |  0.59E-05 |  -0.56E-03 | -0.19E-05 |      0.20E+00 |        2.487 s |        2.488 s

  Total energy components:
  | Sum of eigenvalues            :        -327.53726570 Ha       -8912.74247508 eV
  | XC energy correction          :         -40.74285127 Ha       -1108.66939142 eV
  | XC potential correction       :          53.15262415 Ha        1446.35649283 eV
  | Free-atom electrostatic energy:        -263.60602559 Ha       -7173.08491881 eV
  | Hartree energy correction     :          -0.85108419 Ha         -23.15917921 eV
  | Entropy correction            :          -0.00000000 Ha          -0.00000000 eV
  | ---------------------------
  | Total energy                  :        -579.58460260 Ha      -15771.29947169 eV
  | Total energy, T -> 0          :        -579.58460260 Ha      -15771.29947169 eV  <-- do not rely on this value for anything but (periodic) metals
  | Electronic free energy        :        -579.58460260 Ha      -15771.29947169 eV

  Derived energy quantities:
  | Kinetic energy                :         582.12153737 Ha       15840.33297900 eV
  | Electrostatic energy          :       -1120.96328870 Ha      -30502.96305926 eV
  | Energy correction for multipole
  | error in Hartree potential    :           0.02110657 Ha           0.57433910 eV
  | Sum of eigenvalues per atom                           :       -4456.37123754 eV
  | Total energy (T->0) per atom                          :       -7885.64973584 eV  <-- do not rely on this value for anything but (periodic) metals
  | Electronic free energy per atom                       :       -7885.64973584 eV
  What follows are estimated values for band gap, HOMO, LUMO, etc.
  | They are estimated on a discrete k-point grid and not necessarily exact.
  | For converged numbers, create a DOS and/or band structure plot on a denser k-grid.

  Highest occupied state (VBM) at     -5.32603036 eV (relative to internal zero)
  | Occupation number:      2.00000000
  | K-point:       1 at    0.000000    0.000000    0.000000 (in units of recip. lattice)

  Lowest unoccupied state (CBM) at    -4.92934574 eV (relative to internal zero)
  | Occupation number:      0.00000000
  | K-point:       6 at    0.500000    0.000000    0.500000 (in units of recip. lattice)

  ESTIMATED overall HOMO-LUMO gap:      0.39668462 eV between HOMO at k-point 1 and LUMO at k-point 6
  | This appears to be an indirect band gap.
  | Smallest direct gap :      2.29759289 eV for k_point 1 at    0.500000    0.000000    0.500000 (in units of recip. lattice)
  The gap value is above 0.2 eV. Unless you are using a very sparse k-point grid,
  this system is most likely an insulator or a semiconductor.

  Self-consistency cycle converged.

  Removing unitary transformations (pure translations, rotations) from forces on atoms.
  Atomic forces before filtering:
  | Net force on center of mass :  -0.517574E-08  0.716232E-08  0.866421E-08 eV/A
  Atomic forces after filtering:
  | Net force on center of mass :   0.111504E-16  0.000000E+00  0.223008E-16 eV/A

  Energy and forces in a compact form:
  | Total energy uncorrected      :         -0.157712994716874E+05 eV
  | Total energy corrected        :         -0.157712994716874E+05 eV  <-- do not rely on this value for anything but (periodic) metals
  | Electronic free energy        :         -0.157712994716874E+05 eV
  Total atomic forces (unitary forces cleaned) [eV/Ang]:
  |   1          0.602129996866889E-01         -0.216889939611725E+00         -0.117655776878740E+00
  |   2         -0.602129996866889E-01          0.216889939611725E+00          0.117655776878740E+00

  Removing unitary transformations (pure translations, rotations) from forces on atoms.
  Atomic forces before filtering:
  | Net force on center of mass :   0.111504E-16  0.000000E+00  0.223008E-16 eV/A
  Atomic forces after filtering:
  | Net force on center of mass :  -0.111504E-16  0.000000E+00  0.223008E-16 eV/A
  @ DRIVER - WARNING: the stress tensor will not be computed
 ------------------------------------------------------------------------
 Atomic structure that was used in the preceding time step of the wrapper
                         x [A]             y [A]             z [A]
  lattice_vector         0.00000000        2.72000000        2.72000000
  lattice_vector         2.72000000        0.00000000        2.72000000
  lattice_vector         2.72000000        2.72000000        0.00000000

            atom         0.01778116        0.01228300        0.01141501  Si
            atom         1.38135965        1.35998337        1.36467693  Si
 ------------------------------------------------------------------------
  @ DRIVER MODE: Message from server: STATUS      
  @ DRIVER MODE: Message from server: GETFORCE    
  @ DRIVER MODE: Returning v,forces,stress 
  @ DRIVER MODE: Message from server: STATUS      
  @ DRIVER MODE: Message from server: INIT        
  @ DRIVER MODE: Receiving replica           0
  @ DRIVER MODE: Message from server: STATUS      
  @ DRIVER MODE: Message from server: POSDATA     
  @ DRIVER MODE: Received positions 

------------------------------------------------------------
          Begin self-consistency loop: Re-initialization.

  Date     :  20181120, Time     :  153508.502
------------------------------------------------------------

  Initializing index lists of integration centers etc. from given atomic structure:
  Mapping all atomic coordinates to central unit cell.

  Initializing the k-points
          Using symmetry for reducing the k-points
  | k-points reduced from:        8 to        8
  | Number of k-points                             :         8
  The eigenvectors in the calculations are REAL.
  | K-points in task   0:         2
  | K-points in task   1:         2
  | K-points in task   2:         2
  | K-points in task   3:         2
  | Number of basis functions in the Hamiltonian integrals :      1461
  | Number of basis functions in a single unit cell        :        36
  | Number of centers in hartree potential         :       732
  | Number of centers in hartree multipole         :       318
  | Number of centers in electron density summation:       198
  | Number of centers in basis integrals           :       228
  | Number of centers in integrals                 :       101
  | Number of centers in hamiltonian               :       198
  | Consuming         14 KiB for k_phase.
  | Number of super-cells (origin) [n_cells]                     :        2197
  | Number of super-cells (after PM_index) [n_cells]             :         112
  | Number of super-cells in hamiltonian [n_cells_in_hamiltonian]:         112
  | Size of matrix packed + index [n_hamiltonian_matrix_size] :       42711
  Partitioning the integration grid into batches with parallel hashing+maxmin method.
  Initializing partition tables, free-atom densities, potentials, etc. across the integration grid (initialize_grid_storage).
  | Species        1: outer_partition_radius set to              5.000694715736543 AA .
  | The sparse table of interatomic distances needs        255.65 kbyte instead of       415.87 kbyte of memory.
  | Net number of integration points:    11208
  | of which are non-zero points    :     9804
  Renormalizing the initial density to the exact electron count on the 3D integration grid.
  | Initial density: Formal number of electrons (from input files) :      28.0000000000
  | Integrated number of electrons on 3D grid     :      28.0049050403
  | Charge integration error                      :       0.0049050403
  | Normalization factor for density and gradient :       0.9998248507
  Calculating total energy contributions from superposition of free atom densities.
  Initialize hartree_potential_storage
  Max. number of atoms included in rho_multipole:            2
  Integrating overlap matrix.
  Time summed over all CPUs for integration: real work        0.258 s, elapsed        0.279 s
  Orthonormalizing eigenvectors

  End scf reinitialization - timings           :  max(cpu_time)    wall_clock(cpu1)
  | Time for scf. reinitialization             :        0.209 s           0.209 s
  | Boundary condition initialization          :        0.036 s           0.036 s
  | Integration                                :        0.070 s           0.070 s
  | Grid partitioning                          :        0.015 s           0.015 s
  | Preloading free-atom quantities on grid    :        0.077 s           0.076 s
  | Free-atom superposition energy             :        0.011 s           0.011 s
  | K.-S. eigenvector reorthonormalization     :        0.000 s           0.001 s
------------------------------------------------------------
Convergence:    q app. |  density  | eigen (eV) | Etot (eV) | forces (eV/A) |       CPU time |     Clock time
  SCF    1 :  0.50E-02 |  0.13E+00 |  -0.89E+04 | -0.16E+05 |             . |        0.428 s |        0.427 s
  SCF    2 :  0.50E-02 |  0.12E-03 |  -0.26E-03 |  0.26E-06 |             . |        0.520 s |        0.520 s
  SCF    3 :  0.50E-02 |  0.42E-04 |  -0.15E-03 | -0.16E-07 |             . |        0.516 s |        0.517 s
  SCF    4 :  0.50E-02 |  0.78E-05 |  -0.22E-04 |  0.12E-07 |      0.22E+00 |        2.333 s |        2.333 s

  Total energy components:
  | Sum of eigenvalues            :        -327.53732345 Ha       -8912.74404658 eV
  | XC energy correction          :         -40.74285099 Ha       -1108.66938400 eV
  | XC potential correction       :          53.15262388 Ha        1446.35648570 eV
  | Free-atom electrostatic energy:        -263.60597972 Ha       -7173.08367073 eV
  | Hartree energy correction     :          -0.85105733 Ha         -23.15844813 eV
  | Entropy correction            :          -0.00000000 Ha          -0.00000000 eV
  | ---------------------------
  | Total energy                  :        -579.58458761 Ha      -15771.29906375 eV
  | Total energy, T -> 0          :        -579.58458761 Ha      -15771.29906375 eV  <-- do not rely on this value for anything but (periodic) metals
  | Electronic free energy        :        -579.58458761 Ha      -15771.29906375 eV

  Derived energy quantities:
  | Kinetic energy                :         582.12154786 Ha       15840.33326464 eV
  | Electrostatic energy          :       -1120.96328448 Ha      -30502.96294439 eV
  | Energy correction for multipole
  | error in Hartree potential    :           0.02110828 Ha           0.57438552 eV
  | Sum of eigenvalues per atom                           :       -4456.37202329 eV
  | Total energy (T->0) per atom                          :       -7885.64953187 eV  <-- do not rely on this value for anything but (periodic) metals
  | Electronic free energy per atom                       :       -7885.64953187 eV
  What follows are estimated values for band gap, HOMO, LUMO, etc.
  | They are estimated on a discrete k-point grid and not necessarily exact.
  | For converged numbers, create a DOS and/or band structure plot on a denser k-grid.

  Highest occupied state (VBM) at     -5.31757569 eV (relative to internal zero)
  | Occupation number:      2.00000000
  | K-point:       1 at    0.000000    0.000000    0.000000 (in units of recip. lattice)

  Lowest unoccupied state (CBM) at    -4.93273738 eV (relative to internal zero)
  | Occupation number:      0.00000000
  | K-point:       6 at    0.500000    0.000000    0.500000 (in units of recip. lattice)

  ESTIMATED overall HOMO-LUMO gap:      0.38483832 eV between HOMO at k-point 1 and LUMO at k-point 6
  | This appears to be an indirect band gap.
  | Smallest direct gap :      2.28426802 eV for k_point 1 at    0.500000    0.000000    0.500000 (in units of recip. lattice)
  The gap value is above 0.2 eV. Unless you are using a very sparse k-point grid,
  this system is most likely an insulator or a semiconductor.

  Self-consistency cycle converged.

  Removing unitary transformations (pure translations, rotations) from forces on atoms.
  Atomic forces before filtering:
  | Net force on center of mass :   0.128078E-08  0.593732E-08  0.290472E-08 eV/A
  Atomic forces after filtering:
  | Net force on center of mass :   0.000000E+00 -0.446015E-16  0.223008E-16 eV/A

  Energy and forces in a compact form:
  | Total energy uncorrected      :         -0.157712990637459E+05 eV
  | Total energy corrected        :         -0.157712990637459E+05 eV  <-- do not rely on this value for anything but (periodic) metals
  | Electronic free energy        :         -0.157712990637459E+05 eV
  Total atomic forces (unitary forces cleaned) [eV/Ang]:
  |   1          0.661637590566386E-01         -0.239408037267316E+00         -0.129750600319297E+00
  |   2         -0.661637590566386E-01          0.239408037267316E+00          0.129750600319297E+00

  Removing unitary transformations (pure translations, rotations) from forces on atoms.
  Atomic forces before filtering:
  | Net force on center of mass :   0.000000E+00 -0.446015E-16  0.223008E-16 eV/A
  Atomic forces after filtering:
  | Net force on center of mass :   0.000000E+00  0.446015E-16 -0.223008E-16 eV/A
 ------------------------------------------------------------------------
 Atomic structure that was used in the preceding time step of the wrapper
                         x [A]             y [A]             z [A]
  lattice_vector         0.00000000        2.72000000        2.72000000
  lattice_vector         2.72000000        0.00000000        2.72000000
  lattice_vector         2.72000000        2.72000000        0.00000000

            atom         0.02038281        0.01381784        0.01292627  Si
            atom         1.38434954        1.36020087        1.36546451  Si
 ------------------------------------------------------------------------
  @ DRIVER MODE: Message from server: STATUS      
  @ DRIVER MODE: Message from server: GETFORCE    
  @ DRIVER MODE: Returning v,forces,stress 
  @ DRIVER MODE: Message from server: STATUS      
  @ DRIVER MODE: Message from server: INIT        
  @ DRIVER MODE: Receiving replica           0
  @ DRIVER MODE: Message from server: STATUS      
  @ DRIVER MODE: Message from server: POSDATA     
  @ DRIVER MODE: Received positions 

------------------------------------------------------------
          Begin self-consistency loop: Re-initialization.

  Date     :  20181120, Time     :  153512.642
------------------------------------------------------------

  Initializing index lists of integration centers etc. from given atomic structure:
  Mapping all atomic coordinates to central unit cell.

  Initializing the k-points
          Using symmetry for reducing the k-points
  | k-points reduced from:        8 to        8
  | Number of k-points                             :         8
  The eigenvectors in the calculations are REAL.
  | K-points in task   0:         2
  | K-points in task   1:         2
  | K-points in task   2:         2
  | K-points in task   3:         2
  | Number of basis functions in the Hamiltonian integrals :      1461
  | Number of basis functions in a single unit cell        :        36
  | Number of centers in hartree potential         :       732
  | Number of centers in hartree multipole         :       318
  | Number of centers in electron density summation:       198
  | Number of centers in basis integrals           :       228
  | Number of centers in integrals                 :       101
  | Number of centers in hamiltonian               :       198
  | Consuming         14 KiB for k_phase.
  | Number of super-cells (origin) [n_cells]                     :        2197
  | Number of super-cells (after PM_index) [n_cells]             :         112
  | Number of super-cells in hamiltonian [n_cells_in_hamiltonian]:         112
  | Size of matrix packed + index [n_hamiltonian_matrix_size] :       42711
  Partitioning the integration grid into batches with parallel hashing+maxmin method.
  Initializing partition tables, free-atom densities, potentials, etc. across the integration grid (initialize_grid_storage).
  | Species        1: outer_partition_radius set to              5.000694715736543 AA .
  | The sparse table of interatomic distances needs        255.65 kbyte instead of       415.87 kbyte of memory.
  | Net number of integration points:    11208
  | of which are non-zero points    :     9804
  Renormalizing the initial density to the exact electron count on the 3D integration grid.
  | Initial density: Formal number of electrons (from input files) :      28.0000000000
  | Integrated number of electrons on 3D grid     :      28.0049012816
  | Charge integration error                      :       0.0049012816
  | Normalization factor for density and gradient :       0.9998249849
  Calculating total energy contributions from superposition of free atom densities.
  Initialize hartree_potential_storage
  Max. number of atoms included in rho_multipole:            2
  Integrating overlap matrix.
  Time summed over all CPUs for integration: real work        0.221 s, elapsed        0.225 s
  Orthonormalizing eigenvectors

  End scf reinitialization - timings           :  max(cpu_time)    wall_clock(cpu1)
  | Time for scf. reinitialization             :        0.172 s           0.172 s
  | Boundary condition initialization          :        0.036 s           0.036 s
  | Integration                                :        0.057 s           0.056 s
  | Grid partitioning                          :        0.014 s           0.014 s
  | Preloading free-atom quantities on grid    :        0.057 s           0.057 s
  | Free-atom superposition energy             :        0.009 s           0.009 s
  | K.-S. eigenvector reorthonormalization     :        0.000 s           0.000 s
------------------------------------------------------------
Convergence:    q app. |  density  | eigen (eV) | Etot (eV) | forces (eV/A) |       CPU time |     Clock time
  SCF    1 :  0.50E-02 |  0.13E+00 |  -0.89E+04 | -0.16E+05 |             . |        0.419 s |        0.419 s
  SCF    2 :  0.50E-02 |  0.10E-03 |  -0.31E-03 |  0.19E-06 |             . |        0.495 s |        0.494 s
  SCF    3 :  0.50E-02 |  0.36E-04 |  -0.17E-03 | -0.12E-07 |             . |        0.493 s |        0.493 s
  SCF    4 :  0.50E-02 |  0.68E-05 |  -0.22E-04 |  0.10E-07 |      0.24E+00 |        2.367 s |        2.366 s

  Total energy components:
  | Sum of eigenvalues            :        -327.53737052 Ha       -8912.74532734 eV
  | XC energy correction          :         -40.74285286 Ha       -1108.66943475 eV
  | XC potential correction       :          53.15262648 Ha        1446.35655622 eV
  | Free-atom electrostatic energy:        -263.60593578 Ha       -7173.08247491 eV
  | Hartree energy correction     :          -0.85104055 Ha         -23.15799174 eV
  | Entropy correction            :          -0.00000000 Ha          -0.00000000 eV
  | ---------------------------
  | Total energy                  :        -579.58457323 Ha      -15771.29867251 eV
  | Total energy, T -> 0          :        -579.58457323 Ha      -15771.29867251 eV  <-- do not rely on this value for anything but (periodic) metals
  | Electronic free energy        :        -579.58457323 Ha      -15771.29867251 eV

  Derived energy quantities:
  | Kinetic energy                :         582.12158047 Ha       15840.33415178 eV
  | Electrostatic energy          :       -1120.96330084 Ha      -30502.96338955 eV
  | Energy correction for multipole
  | error in Hartree potential    :           0.02110985 Ha           0.57442831 eV
  | Sum of eigenvalues per atom                           :       -4456.37266367 eV
  | Total energy (T->0) per atom                          :       -7885.64933626 eV  <-- do not rely on this value for anything but (periodic) metals
  | Electronic free energy per atom                       :       -7885.64933626 eV
  What follows are estimated values for band gap, HOMO, LUMO, etc.
  | They are estimated on a discrete k-point grid and not necessarily exact.
  | For converged numbers, create a DOS and/or band structure plot on a denser k-grid.

  Highest occupied state (VBM) at     -5.31016222 eV (relative to internal zero)
  | Occupation number:      2.00000000
  | K-point:       1 at    0.000000    0.000000    0.000000 (in units of recip. lattice)

  Lowest unoccupied state (CBM) at    -4.93570914 eV (relative to internal zero)
  | Occupation number:      0.00000000
  | K-point:       6 at    0.500000    0.000000    0.500000 (in units of recip. lattice)

  ESTIMATED overall HOMO-LUMO gap:      0.37445308 eV between HOMO at k-point 1 and LUMO at k-point 6
  | This appears to be an indirect band gap.
  | Smallest direct gap :      2.27258835 eV for k_point 1 at    0.500000    0.000000    0.500000 (in units of recip. lattice)
  The gap value is above 0.2 eV. Unless you are using a very sparse k-point grid,
  this system is most likely an insulator or a semiconductor.

  Self-consistency cycle converged.

  Removing unitary transformations (pure translations, rotations) from forces on atoms.
  Atomic forces before filtering:
  | Net force on center of mass :   0.964966E-08  0.300780E-07  0.234907E-08 eV/A
  Atomic forces after filtering:
  | Net force on center of mass :   0.000000E+00  0.446015E-16  0.223008E-16 eV/A

  Energy and forces in a compact form:
  | Total energy uncorrected      :         -0.157712986725137E+05 eV
  | Total energy corrected        :         -0.157712986725137E+05 eV  <-- do not rely on this value for anything but (periodic) metals
  | Electronic free energy        :         -0.157712986725137E+05 eV
  Total atomic forces (unitary forces cleaned) [eV/Ang]:
  |   1          0.715258099257372E-01         -0.259535488970200E+00         -0.140578288631395E+00
  |   2         -0.715258099257372E-01          0.259535488970200E+00          0.140578288631395E+00

  Removing unitary transformations (pure translations, rotations) from forces on atoms.
  Atomic forces before filtering:
  | Net force on center of mass :   0.000000E+00  0.446015E-16  0.223008E-16 eV/A
  Atomic forces after filtering:
  | Net force on center of mass :   0.000000E+00  0.446015E-16  0.223008E-16 eV/A
 ------------------------------------------------------------------------
 Atomic structure that was used in the preceding time step of the wrapper
                         x [A]             y [A]             z [A]
  lattice_vector         0.00000000        2.72000000        2.72000000
  lattice_vector         2.72000000        0.00000000        2.72000000
  lattice_vector         2.72000000        2.72000000        0.00000000

            atom         0.02300719        0.01527044        0.01439296  Si
            atom         1.38731671        1.36050061        1.36629667  Si
 ------------------------------------------------------------------------
  @ DRIVER MODE: Message from server: STATUS      
  @ DRIVER MODE: Message from server: GETFORCE    
  @ DRIVER MODE: Returning v,forces,stress 
  @ DRIVER MODE: Message from server: STATUS      
  @ DRIVER MODE: Message from server: INIT        
  @ DRIVER MODE: Receiving replica           0
  @ DRIVER MODE: Message from server: STATUS      
  @ DRIVER MODE: Message from server: POSDATA     
  @ DRIVER MODE: Received positions 

------------------------------------------------------------
          Begin self-consistency loop: Re-initialization.

  Date     :  20181120, Time     :  153516.722
------------------------------------------------------------

  Initializing index lists of integration centers etc. from given atomic structure:
  Mapping all atomic coordinates to central unit cell.

  Initializing the k-points
          Using symmetry for reducing the k-points
  | k-points reduced from:        8 to        8
  | Number of k-points                             :         8
  The eigenvectors in the calculations are REAL.
  | K-points in task   0:         2
  | K-points in task   1:         2
  | K-points in task   2:         2
  | K-points in task   3:         2
  | Number of basis functions in the Hamiltonian integrals :      1463
  | Number of basis functions in a single unit cell        :        36
  | Number of centers in hartree potential         :       732
  | Number of centers in hartree multipole         :       318
  | Number of centers in electron density summation:       198
  | Number of centers in basis integrals           :       228
  | Number of centers in integrals                 :       101
  | Number of centers in hamiltonian               :       198
  | Consuming         14 KiB for k_phase.
  | Number of super-cells (origin) [n_cells]                     :        2197
  | Number of super-cells (after PM_index) [n_cells]             :         112
  | Number of super-cells in hamiltonian [n_cells_in_hamiltonian]:         112
  | Size of matrix packed + index [n_hamiltonian_matrix_size] :       42711
  Partitioning the integration grid into batches with parallel hashing+maxmin method.
  Initializing partition tables, free-atom densities, potentials, etc. across the integration grid (initialize_grid_storage).
  | Species        1: outer_partition_radius set to              5.000694715736543 AA .
  | The sparse table of interatomic distances needs        255.65 kbyte instead of       415.87 kbyte of memory.
  | Net number of integration points:    11208
  | of which are non-zero points    :     9800
  Renormalizing the initial density to the exact electron count on the 3D integration grid.
  | Initial density: Formal number of electrons (from input files) :      28.0000000000
  | Integrated number of electrons on 3D grid     :      28.0048978624
  | Charge integration error                      :       0.0048978624
  | Normalization factor for density and gradient :       0.9998251069
  Calculating total energy contributions from superposition of free atom densities.
  Initialize hartree_potential_storage
  Max. number of atoms included in rho_multipole:            2
  Integrating overlap matrix.
  Time summed over all CPUs for integration: real work        0.218 s, elapsed        0.223 s
  Orthonormalizing eigenvectors

  End scf reinitialization - timings           :  max(cpu_time)    wall_clock(cpu1)
  | Time for scf. reinitialization             :        0.169 s           0.169 s
  | Boundary condition initialization          :        0.035 s           0.035 s
  | Integration                                :        0.056 s           0.056 s
  | Grid partitioning                          :        0.014 s           0.014 s
  | Preloading free-atom quantities on grid    :        0.055 s           0.055 s
  | Free-atom superposition energy             :        0.009 s           0.009 s
  | K.-S. eigenvector reorthonormalization     :        0.000 s           0.000 s
------------------------------------------------------------
Convergence:    q app. |  density  | eigen (eV) | Etot (eV) | forces (eV/A) |       CPU time |     Clock time
  SCF    1 :  0.50E-02 |  0.13E+00 |  -0.89E+04 | -0.16E+05 |             . |        0.421 s |        0.421 s
  SCF    2 :  0.50E-02 |  0.86E-04 |  -0.29E-03 |  0.12E-06 |             . |        0.466 s |        0.466 s
  SCF    3 :  0.50E-02 |  0.31E-04 |  -0.16E-03 | -0.16E-07 |      0.25E+00 |        2.140 s |        2.140 s

  Total energy components:
  | Sum of eigenvalues            :        -327.53741255 Ha       -8912.74647098 eV
  | XC energy correction          :         -40.74285459 Ha       -1108.66948176 eV
  | XC potential correction       :          53.15262888 Ha        1446.35662156 eV
  | Free-atom electrostatic energy:        -263.60589583 Ha       -7173.08138801 eV
  | Hartree energy correction     :          -0.85102607 Ha         -23.15759751 eV
  | Entropy correction            :          -0.00000000 Ha          -0.00000000 eV
  | ---------------------------
  | Total energy                  :        -579.58456016 Ha      -15771.29831670 eV
  | Total energy, T -> 0          :        -579.58456016 Ha      -15771.29831670 eV  <-- do not rely on this value for anything but (periodic) metals
  | Electronic free energy        :        -579.58456016 Ha      -15771.29831670 eV

  Derived energy quantities:
  | Kinetic energy                :         582.12161038 Ha       15840.33496572 eV
  | Electrostatic energy          :       -1120.96331595 Ha      -30502.96380066 eV
  | Energy correction for multipole
  | error in Hartree potential    :           0.02111128 Ha           0.57446717 eV
  | Sum of eigenvalues per atom                           :       -4456.37323549 eV
  | Total energy (T->0) per atom                          :       -7885.64915835 eV  <-- do not rely on this value for anything but (periodic) metals
  | Electronic free energy per atom                       :       -7885.64915835 eV
  What follows are estimated values for band gap, HOMO, LUMO, etc.
  | They are estimated on a discrete k-point grid and not necessarily exact.
  | For converged numbers, create a DOS and/or band structure plot on a denser k-grid.

  Highest occupied state (VBM) at     -5.30388654 eV (relative to internal zero)
  | Occupation number:      2.00000000
  | K-point:       1 at    0.000000    0.000000    0.000000 (in units of recip. lattice)

  Lowest unoccupied state (CBM) at    -4.93821489 eV (relative to internal zero)
  | Occupation number:      0.00000000
  | K-point:       6 at    0.500000    0.000000    0.500000 (in units of recip. lattice)

  ESTIMATED overall HOMO-LUMO gap:      0.36567165 eV between HOMO at k-point 1 and LUMO at k-point 6
  | This appears to be an indirect band gap.
  | Smallest direct gap :      2.26270656 eV for k_point 1 at    0.500000    0.000000    0.500000 (in units of recip. lattice)
  The gap value is above 0.2 eV. Unless you are using a very sparse k-point grid,
  this system is most likely an insulator or a semiconductor.

  Self-consistency cycle converged.

  Removing unitary transformations (pure translations, rotations) from forces on atoms.
  Atomic forces before filtering:
  | Net force on center of mass :   0.226790E-08 -0.160636E-07 -0.848894E-09 eV/A
  Atomic forces after filtering:
  | Net force on center of mass :   0.111504E-16  0.000000E+00  0.000000E+00 eV/A

  Energy and forces in a compact form:
  | Total energy uncorrected      :         -0.157712983166976E+05 eV
  | Total energy corrected        :         -0.157712983166976E+05 eV  <-- do not rely on this value for anything but (periodic) metals
  | Electronic free energy        :         -0.157712983166976E+05 eV
  Total atomic forces (unitary forces cleaned) [eV/Ang]:
  |   1          0.737575628555927E-01         -0.268449053587924E+00         -0.145315881355721E+00
  |   2         -0.737575628555927E-01          0.268449053587924E+00          0.145315881355721E+00

  Removing unitary transformations (pure translations, rotations) from forces on atoms.
  Atomic forces before filtering:
  | Net force on center of mass :   0.111504E-16  0.000000E+00  0.000000E+00 eV/A
  Atomic forces after filtering:
  | Net force on center of mass :  -0.111504E-16  0.000000E+00  0.000000E+00 eV/A
 ------------------------------------------------------------------------
 Atomic structure that was used in the preceding time step of the wrapper
                         x [A]             y [A]             z [A]
  lattice_vector         0.00000000        2.72000000        2.72000000
  lattice_vector         2.72000000        0.00000000        2.72000000
  lattice_vector         2.72000000        2.72000000        0.00000000

            atom         0.02565614        0.01663387        0.01581136  Si
            atom         1.39025930        1.36088952        1.36717712  Si
 ------------------------------------------------------------------------
  @ DRIVER MODE: Message from server: STATUS      
  @ DRIVER MODE: Message from server: GETFORCE    
  @ DRIVER MODE: Returning v,forces,stress 

------------------------------------------------------------------------------
  Final output of selected total energy values:

  The following output summarizes some interesting total energy values
  at the end of a run (AFTER all relaxation, molecular dynamics, etc.).

  | Total energy of the DFT / Hartree-Fock s.c.f. calculation      :         -15771.298316698 eV
  | Final zero-broadening corrected energy (caution - metals only) :         -15771.298316698 eV
  | For reference only, the value of 1 Hartree used in FHI-aims is :             27.211384500 eV
  | For reference only, the overall average (free atom contribution
  | + realspace contribution) of the electrostatic potential after
  | s.c.f. convergence is                                          :            -12.583063391 eV

  Before relying on these values, please be sure to understand exactly which
  total energy value is referred to by a given number. Different objects may
  all carry the same name 'total energy'. Definitions:

  Total energy of the DFT / Hartree-Fock s.c.f. calculation:
  | Note that this energy does not include ANY quantities calculated after the
  | s.c.f. cycle, in particular not ANY RPA, MP2, etc. many-body perturbation terms.

  Final zero-broadening corrected energy:
  | For metallic systems only, a broadening of the occupation numbers at the Fermi
  | level can be extrapolated back to zero broadening by an electron-gas inspired
  | formula. For all systems that are not real metals, this value can be
  | meaningless and should be avoided.

------------------------------------------------------------------------------
  Methods described in the following list of references were used in this FHI-aims run.
  If you publish the results, please make sure to cite these reference if they apply.
  FHI-aims is an academic code, and for our developers (often, Ph.D. students
  and postdocs), scientific credit in the community is essential.
  Thank you for helping us!

  For any use of FHI-aims, please cite:

    Volker Blum, Ralf Gehrke, Felix Hanke, Paula Havu, Ville Havu,
    Xinguo Ren, Karsten Reuter, and Matthias Scheffler
    'Ab initio molecular simulations with numeric atom-centered orbitals'
    Computer Physics Communications 180, 2175-2196 (2009)
    http://dx.doi.org/10.1016/j.cpc.2009.06.022


  The provided symmetry information was generated with SPGlib:

    Atsushi Togo, Yusuke Seto, Dimitar Pashov
    SPGlib 1.7.3 obtained from http://spglib.sourceforge.net
    Copyright (C) 2008 Atsushi Togo


  For the real-space grid partitioning and parallelization used in this calculation, please cite:

    Ville Havu, Volker Blum, Paula Havu, and Matthias Scheffler,
    'Efficient O(N) integration for all-electron electronic structure calculation'
    'using numerically tabulated basis functions'
    Journal of Computational Physics 228, 8367-8379 (2009).
    http://dx.doi.org/10.1016/j.jcp.2009.08.008

  Of course, there are many other important community references, e.g., those cited in the
  above references. Our list is limited to references that describe implementations in the
  FHI-aims code. The reason is purely practical (length of this list) - please credit others as well.

------------------------------------------------------------
          Leaving FHI-aims.
          Date     :  20181120, Time     :  153519.964

          Computational steps:
          | Number of self-consistency cycles          :           18
          | Number of SCF (re)initializations          :            4

          Detailed time accounting                     :  max(cpu_time)    wall_clock(cpu1)
          | Total time                                 :       18.389 s          18.393 s
          | Preparation time                           :        0.137 s           0.138 s
          | Boundary condition initalization           :        0.148 s           0.148 s
          | Grid partitioning                          :        0.058 s           0.058 s
          | Preloading free-atom quantities on grid    :        0.190 s           0.189 s
          | Free-atom superposition energy             :        0.039 s           0.039 s
          | Total time for integrations                :        2.363 s           2.364 s
          | Total time for solution of K.-S. equations :        0.021 s           0.021 s
          | Total time for density & force components  :        9.985 s           9.985 s
          | Total time for mixing & preconditioning    :        0.812 s           0.813 s
          | Total time for Hartree multipole update    :        0.014 s           0.015 s
          | Total time for Hartree multipole sum       :        4.057 s           4.053 s
          | Total time for total energy evaluation     :        0.001 s           0.002 s
          | Total time for scaled ZORA corrections     :        0.000 s           0.000 s

          Partial memory accounting:
          | Residual value for overall tracked memory usage across tasks :     0.000000 MB (should be 0.000000 MB)
          | Peak values for overall tracked memory usage (after allocating d_wave):
          |   Minimum:       10.304 MB (on task 4)
          |   Maximum:       10.749 MB (on task 2)
          |   Average:       10.588 MB
          | Largest tracked array allocation (hessian_basis_wave):
          |   Minimum:        2.359 MB (on task 4)
          |   Maximum:        2.452 MB (on task 2)
          |   Average:        2.418 MB
          Note:  These values currently only include a subset of arrays which are explicitly tracked.
          The "true" memory usage will be greater.

------------------------------------------------------------
