  MPI-parallelism will be employed.
------------------------------------------------------------
          Invoking FHI-aims ...

          When using FHI-aims, please cite the following reference:

          Volker Blum, Ralf Gehrke, Felix Hanke, Paula Havu,
          Ville Havu, Xinguo Ren, Karsten Reuter, and Matthias Scheffler,
          'Ab Initio Molecular Simulations with Numeric Atom-Centered Orbitals',
          Computer Physics Communications 180, 2175-2196 (2009)

          For any questions about FHI-aims, please visit the aimsclub website
          with its forums and wiki. Contributions to both the forums and the
          wiki are warmly encouraged - they are for you, and everyone is welcome there.

------------------------------------------------------------



  Date     :  20181124, Time     :  152304.616
  Time zero on CPU 1             :   0.191860000000000E-01  s.
  Internal wall clock time zero  :           312304984.616  s.

  FHI-aims created a unique identifier for this run for later identification
  aims_uuid : FBB92807-02C2-45E4-A017-2FDCBD42AFA8

  Build configuration of the current instance of FHI-aims
  -------------------------------------------------------
  FHI-aims version      : 181025
  Commit number         : 436c0fce9
  CMake host system     : Linux-4.15.0-38-generic
  CMake version         : 3.5.1
  Fortran compiler      : /home/knoop/local/openmpi-3.0.0/build/bin/mpifort (Intel) version 17.0.1.20161005
  Fortran compiler flags: -O3 -ip -fp-model precise -xHOST
  C compiler            : /usr/bin/gcc (GNU) version 8.1.0
  C compiler flags      : -O3
  Architecture          :
  Using MPI
  Using C files
  Using SPGlib
  Using i-PI
  Linking against: /home/knoop/local/anaconda3/pkgs/mkl-2019.0-118/lib/libmkl_intel_lp64.so
                   /home/knoop/local/anaconda3/pkgs/mkl-2019.0-118/lib/libmkl_sequential.so
                   /home/knoop/local/anaconda3/pkgs/mkl-2019.0-118/lib/libmkl_core.so
                   /home/knoop/local/anaconda3/pkgs/mkl-2019.0-118/lib/libmkl_blacs_intelmpi_lp64.so
                   /home/knoop/local/anaconda3/pkgs/mkl-2019.0-118/lib/libmkl_scalapack_lp64.so

  Using        4 parallel tasks.
  Task        0 on host theobook135 reporting.
  Task        1 on host theobook135 reporting.
  Task        2 on host theobook135 reporting.
  Task        3 on host theobook135 reporting.

  Performing system and environment tests:
  *** Environment variable OMP_NUM_THREADS is not set
  *** For performance reasons you might want to set it to 1
  | Maximum stacksize for task 0: unlimited
  | Maximum stacksize for task 1: unlimited
  | Maximum stacksize for task 2: unlimited
  | Maximum stacksize for task 3: unlimited
  | Current stacksize for task 0: unlimited
  | Current stacksize for task 1: unlimited
  | Current stacksize for task 2: unlimited
  | Current stacksize for task 3: unlimited
  | Checking for scalapack...
  | No scalapack compiled in.

  Obtaining array dimensions for all initial allocations:
  
  -----------------------------------------------------------------------
  Parsing control.in (first pass over file, find array dimensions only).
  The contents of control.in will be repeated verbatim below
  unless switched off by setting 'verbatim_writeout .false.' .
  in the first line of control.in .
  -----------------------------------------------------------------------
  
  #===============================================================================
  # FHI-aims file: ./control.in
  # Created using the Atomic Simulation Environment (ASE)
  # Sat Nov 24 15:23:04 2018
  #
  # List of parameters used to initialize the calculator:
  #     xc : pw-lda
  #     sc_accuracy_rho : 0.0001
  #     charge_mix_param : 0.5
  #     output_level : MD_light
  #     species_dir : /home/knoop/FHIaims/aimsfiles/species_defaults/light
  #     use_pimd_wrapper : ('localhost', 12345)
  #     compute_forces : True
  #     k_grid : [2, 2, 2]
  #===============================================================================
  xc                                 pw-lda
  sc_accuracy_rho                    0.0001
  charge_mix_param                   0.5
  output_level                       MD_light
  use_pimd_wrapper                   localhost 12345
  compute_forces                     .true.
  k_grid                             2 2 2
  #===============================================================================
  
  ################################################################################
  #
  #  FHI-aims code project
  #  VB, Fritz-Haber Institut, 2009
  #
  #  Suggested "light" defaults for Si atom (to be pasted into control.in file)
  #  Be sure to double-check any results obtained with these settings for post-processing,
  #  e.g., with the "tight" defaults and larger basis sets.
  #
  ################################################################################
    species        Si
  #     global species definitions
      nucleus             14
      mass                28.0855
  #
      l_hartree           4
  #
      cut_pot             3.5          1.5  1.0
      basis_dep_cutoff    1e-4
  #
      radial_base         42 5.0
      radial_multiplier   1
      angular_grids       specified
        division   0.5866   50
        division   0.9616  110
        division   1.2249  194
        division   1.3795  302
  #      division   1.4810  434
  #      division   1.5529  590
  #      division   1.6284  770
  #      division   1.7077  974
  #      division   2.4068 1202
  #      outer_grid   974
        outer_grid 302
  ################################################################################
  #
  #  Definition of "minimal" basis
  #
  ################################################################################
  #     valence basis states
      valence      3  s   2.
      valence      3  p   2.
  #     ion occupancy
      ion_occ      3  s   1.
      ion_occ      3  p   1.
  ################################################################################
  #
  #  Suggested additional basis functions. For production calculations,
  #  uncomment them one after another (the most important basis functions are
  #  listed first).
  #
  #  Constructed for dimers: 1.75 A, 2.0 A, 2.25 A, 2.75 A, 3.75 A
  #
  ################################################################################
  #  "First tier" - improvements: -571.96 meV to -37.03 meV
       hydro 3 d 4.2
       hydro 2 p 1.4
  #     hydro 4 f 6.2
       ionic 3 s auto
  #  "Second tier" - improvements: -16.76 meV to -3.03 meV
  #     hydro 3 d 9
  #     hydro 5 g 9.4
  #     hydro 4 p 4
  #     hydro 1 s 0.65
  #  "Third tier" - improvements: -3.89 meV to -0.60 meV
  #     ionic 3 d auto
  #     hydro 3 s 2.6
  #     hydro 4 f 8.4
  #     hydro 3 d 3.4
  #     hydro 3 p 7.8
  #  "Fourth tier" - improvements: -0.33 meV to -0.11 meV
  #     hydro 2 p 1.6
  #     hydro 5 g 10.8
  #     hydro 5 f 11.2
  #     hydro 3 d 1
  #     hydro 4 s 4.5
  #  Further basis functions that fell out of the optimization - noise
  #  level... < -0.08 meV
  #     hydro 4 d 6.6
  #     hydro 5 g 16.4
  #     hydro 4 d 9
  
  -----------------------------------------------------------------------
  Completed first pass over input file control.in .
  -----------------------------------------------------------------------
  
  
  -----------------------------------------------------------------------
  Parsing geometry.in (first pass over file, find array dimensions only).
  The contents of geometry.in will be repeated verbatim below
  unless switched off by setting 'verbatim_writeout .false.' .
  in the first line of geometry.in .
  -----------------------------------------------------------------------
  
  #=======================================================
  # FHI-aims file: ./geometry.in
  # Created using the Atomic Simulation Environment (ASE)
  # Sat Nov 24 15:23:04 2018
  #=======================================================
  lattice_vector 5.4399999999999995 0.0000000000000001 0.0000000000000000
  lattice_vector 0.0000000000000001 5.4399999999999995 0.0000000000000000
  lattice_vector -0.0000000000000001 -0.0000000000000001 5.4399999999999995
  atom 0.0100000000000000 0.0000000000000000 0.0000000000000000 Si
  atom 5.4399999999999995 2.7199999999999998 2.7199999999999998 Si
  atom 2.7199999999999998 0.0000000000000000 2.7199999999999998 Si
  atom 2.7199999999999998 2.7199999999999998 0.0000000000000000 Si
  atom 1.3599999999999999 1.3599999999999999 1.3599999999999999 Si
  atom 1.3599999999999997 4.0800000000000001 4.0800000000000001 Si
  atom 4.0800000000000001 1.3599999999999999 4.0800000000000001 Si
  atom 4.0800000000000001 4.0800000000000001 1.3599999999999999 Si
  
  -----------------------------------------------------------------------
  Completed first pass over input file geometry.in .
  -----------------------------------------------------------------------
  

  Basic array size parameters:
  | Number of species                 :        1
  | Number of atoms                   :        8
  | Number of lattice vectors         :        3
  | Max. basis fn. angular momentum   :        2
  | Max. atomic/ionic basis occupied n:        3
  | Max. number of basis fn. types    :        3
  | Max. radial fns per species/type  :        5
  | Max. logarithmic grid size        :     1346
  | Max. radial integration grid size :       42
  | Max. angular integration grid size:      302
  | Max. angular grid division number :        8
  | Radial grid for Hartree potential :     1346
  | Number of spin channels           :        1

------------------------------------------------------------
          Reading file control.in.
------------------------------------------------------------
  XC: Using Perdew-Wang parametrisation of Ceperley-Alder LDA.
  Convergence accuracy of self-consistent charge density:  0.1000E-03
  Charge density mixing - mixing parameter:     0.5000
  Requested output level: MD_light            
  Using external wrapper (i-PI) for performing (path integral) molecular dynamics
  **Attention: initial geometry.in file will be ignored!
  Forces will be computed.
  Found k-point grid:         2         2         2
 
  Reading configuration options for species Si                  .
  | Found nuclear charge :  14.0000
  | Found atomic mass :    28.0855000000000      amu
  | Found l_max for Hartree potential  :   4
  | Found cutoff potl. onset [A], width [A], scale factor :    3.50000    1.50000    1.00000
  | Threshold for basis-dependent cutoff potential is   0.100000E-03
  | Found data for basic radial integration grid :    42 points, outermost radius =    5.000 A
  | Found multiplier for basic radial grid :   1
  | Found angular grid specification: user-specified.
  | Specified grid contains     5 separate shells.
  | Check grid settings after all constraints further below.
  | Found free-atom valence shell :  3 s   2.000
  | Found free-atom valence shell :  3 p   2.000
  | Found free-ion valence shell :  3 s   1.000
  | Found free-ion valence shell :  3 p   1.000
  | Found hydrogenic basis function :  3 d   4.200
  | Found hydrogenic basis function :  2 p   1.400
  | Found ionic basis function :  3 s , default cutoff radius.
  Species Si                  : Missing cutoff potential type.
  Defaulting to exp(1/x)/(1-x)^2 type cutoff potential.
  Species Si: No 'logarithmic' tag. Using default grid for free atom:
  | Default logarithmic grid data [bohr] : 0.1000E-03 0.1000E+03 0.1012E+01
  | Will include ionic basis functions of  2.0-fold positive Si                   ion.
  Species Si: On-site basis accuracy parameter (for Gram-Schmidt orthonormalisation) not specified.
  Using default value basis_acc =  0.1000000E-03.
  Species Si                  : Using default innermost maximum threshold i_radial=  2 for radial functions.
  Species Si                  : Default cutoff onset for free atom density etc. : 0.35000000E+01 AA.
  Species Si                  : Basic radial grid will be enhanced according to radial_multiplier =   1, to contain    42 grid points.
 
  Finished reading input file 'control.in'. Consistency checks are next.
 
  MPI_IN_PLACE appears to work with this MPI implementation.
  | Keeping use_mpi_in_place .true. (see manual).
  Target number of points in a grid batch is not set. Defaulting to  100
  Method for grid partitioning is not set. Defaulting to parallel hash+maxmin partitioning.
  Batch size limit is not set. Defaulting to    200
  By default, will store active basis functions for each batch.
  If in need of memory, prune_basis_once .false. can be used to disable this option.
  communication_type for Hartree potential was not specified.
  Defaulting to calc_hartree .
  Defaulting to Pulay charge density mixer.
  Pulay mixer: Number of relevant iterations not set.
  Defaulting to    8 iterations.
  Pulay mixer: Number of initial linear mixing iterations not set.
  Defaulting to    0 iterations.
  Work space size for distributed Hartree potential not set.
  Defaulting to   0.200000E+03 MB.
  Algorithm-dependent basis array size parameters:
  | n_max_pulay                         :        8
  Maximum number of self-consistency iterations not provided.
  Presetting  1000 iterations.
  Presetting      1001 iterations before the initial mixing cycle
  is restarted anyway using the sc_init_iter criterion / keyword.
  Presetting a factor      1.000 between actual scf density residual
  and density convergence criterion sc_accuracy_rho below which sc_init_iter
  takes no effect.
  Geometry relaxation not requested: no relaxation will be performed.
  Force calculation: scf convergence accuracy of forces not set.
  Defaulting to 'sc_accuracy_forces not_checked'.
  Handling of forces: Unphysical translation and rotation will be removed from forces.
  No accuracy limit for integral partition fn. given. Defaulting to  0.1000E-14.
  No threshold value for u(r) in integrations given. Defaulting to  0.1000E-05.
  No occupation type (smearing scheme) given. Defaulting to Gaussian broadening, width =  0.1000E-01 eV.
  The width will be adjusted in iteration number     2 of the first full s.c.f. cycle only.
  S.C.F. convergence parameters will be adjusted in iteration number     2 of the first full s.c.f. cycle only.
  No accuracy for occupation numbers given. Defaulting to  0.1000E-12.
  No threshold value for occupation numbers given. Defaulting to  0.0000E+00.
  No accuracy for fermi level given. Defaulting to  0.1000E-19.
  Maximum # of iterations to find E_F not set. Defaulting to  200.
  Preferred method for the eigenvalue solver ('KS_method') not specified in 'control.in'.
  Defaulting to serial version, 'lapack_fast', since more k-points than CPUs available.
  Will not use alltoall communication since running on < 1024 CPUs.
  Threshold for basis singularities not set.
  Default threshold for basis singularities:  0.1000E-04
  partition_type (choice of integration weights) for integrals was not specified.
  | Using a version of the partition function of Stratmann and coworkers ('stratmann_sparse').
  | At each grid point, the set of atoms used to build the partition table is smoothly restricted to
  | only those atoms whose free-atom density would be non-zero at that grid point.
  Partitioning for Hartree potential was not defined. Using partition_type for integrals.
  | Adjusted default value of keyword multip_moments_threshold to:       0.10000000E-11
  | This value may affect high angular momentum components of the Hartree potential in periodic systems.
  Spin handling was not defined in control.in. Defaulting to unpolarized case.
  Angular momentum expansion for Kerker preconditioner not set explicitly.
  | Using default value of   0
  No explicit requirement for turning off preconditioner.
  | By default, it will be turned off when the charge convergence reaches
  | sc_accuracy_rho  =   0.100000E-03
  No special mixing parameter while Kerker preconditioner is on.
  Using default: charge_mix_param =     0.5000.
  No q(lm)/r^(l+1) cutoff set for long-range Hartree potential.
  | Using default value of  0.100000E-09 .
  | Verify using the multipole_threshold keyword.
  Defaulting to new monopole extrapolation.
  Density update method: automatic selection selected.
  Using density matrix based charge density update.
  Using density matrix based charge density update.
  Using packed matrix style: index .
  Defaulting to use time-reversal symmetry for k-point grid.
------------------------------------------------------------


------------------------------------------------------------
          Reading geometry description geometry.in.
------------------------------------------------------------
 * Warning! You did not set the 'relativistic' flag in input file 'control.in'.
 * Since you are not attempting to treat any elements beyond Ca(Z=20), FHI-aims
 * will default to 'relativistic none'.
 * You must ensure that this is really what you want!!
 * For example, DO NOT compute total-energy differences between results from
 * different settings of the 'relativistic' flag.
  Input structure read successfully.
  The structure contains        8 atoms,  and a total of        112.000 electrons.

  Input geometry:
  | Unit cell:
  |        5.44000000        0.00000000        0.00000000
  |        0.00000000        5.44000000        0.00000000
  |       -0.00000000       -0.00000000        5.44000000
  | Atomic structure:
  |       Atom                x [A]            y [A]            z [A]
  |    1: Species Si            0.01000000        0.00000000        0.00000000
  |    2: Species Si            5.44000000        2.72000000        2.72000000
  |    3: Species Si            2.72000000        0.00000000        2.72000000
  |    4: Species Si            2.72000000        2.72000000        0.00000000
  |    5: Species Si            1.36000000        1.36000000        1.36000000
  |    6: Species Si            1.36000000        4.08000000        4.08000000
  |    7: Species Si            4.08000000        1.36000000        4.08000000
  |    8: Species Si            4.08000000        4.08000000        1.36000000

  Lattice parameters for 3D lattice (in Angstroms) :     5.440000    5.440000    5.440000
  Angle(s) between unit vectors (in degrees)       :    90.000000   90.000000   90.000000

  |

  | The smallest distance between any two atoms is         2.34982978 AA.
  |
  | The first atom of this pair is atom number                      1 .
  | The second atom of this pair is atom number                     6 .
  | Wigner-Seitz cell of the first atom image           0     0     0 .
  | (The Wigner-Seitz cell of the second atom is 0 0 0  by definition.)

  Symmetry information by spglib:
  | Precision set to  0.1E-04
  | Number of Operations  : 4
  | Space group           : 35
  | International         : Cmm2
  | Schoenflies           : C2v^11

  Quantities derived from the lattice vectors:
  | Reciprocal lattice vector 1:  1.154997  0.000000  0.000000
  | Reciprocal lattice vector 2:  0.000000  1.154997  0.000000
  | Reciprocal lattice vector 3: -0.000000 -0.000000  1.154997
  | Unit cell volume                               :   0.160989E+03  A^3

  Range separation radius for Ewald summation (hartree_convergence_parameter):      3.89607948 bohr.

  Number of empty states per atom not set in control.in - providing a guess from actual geometry.
  | Total number of empty states used during s.c.f. cycle:       24
  If you use a very high smearing, use empty_states (per atom!) in control.in to increase this value.

  Structure-dependent array size parameters: 
  | Maximum number of distinct radial functions  :        8
  | Maximum number of basis functions            :      144
  | Number of Kohn-Sham states (occupied + empty):       80
------------------------------------------------------------

************************** W A R N I N G *******************************
* You are using the PIMD wrapper. Specifications and positions         *
* in geometry.in will be IGNORED - all is received from the wrapper.   *
* Please make sure species are declared in the same order in           *
* geometry.in and wrapper input.                                       *
************************************************************************


------------------------------------------------------------
          Preparing all fixed parts of the calculation.
------------------------------------------------------------
  Determining machine precision:
    2.225073858507201E-308
  Setting up grids for atomic and cluster calculations.

  Creating wave function, potential, and density for free atoms.

  Species: Si

  List of occupied orbitals and eigenvalues:
    n    l              occ      energy [Ha]    energy [eV]
    1    0           2.0000       -65.172154     -1773.4245
    2    0           2.0000        -5.063250      -137.7780
    3    0           2.0000        -0.389854       -10.6085
    2    1           6.0000        -3.503088       -95.3239
    3    1           2.0000        -0.144317        -3.9271

  Creating fixed part of basis set: Ionic, confined, hydrogenic.
 
  Si                   ion:

  List of free ionic orbitals and eigenvalues:
    n    l      energy [Ha]    energy [eV]
    1    0       -66.042358     -1797.1040
    2    0        -5.909940      -160.8177
    3    0        -1.075552       -29.2673
    2    1        -4.350945      -118.3952
    3    1        -0.781825       -21.2745


  List of ionic basis orbitals and eigenvalues:
    n    l      energy [Ha]    energy [eV]    outer radius [A]
    3    0        -1.075532       -29.2667       4.214062

 
  Si                   hydrogenic:
 
  List of hydrogenic basis orbitals: 
    n    l      effective z      eigenvalue [eV]  inner max. [A]     outer max. [A]     outer radius [A]   
    3    2         4.200000       -26.6624           1.139231           1.139231           4.534782
    2    1         1.400000        -6.4613           1.472672           1.472672           4.590560
 

  Adding cutoff potential to free-atom effective potential.
  Creating atomic-like basis functions for current effective potential.

  Species Si                  :

  List of atomic basis orbitals and eigenvalues:
    n    l      energy [Ha]    energy [eV]    outer radius [A]
    1    0       -65.172154     -1773.4245       0.789468
    2    0        -5.063250      -137.7780       2.815114
    3    0        -0.389854       -10.6085       4.534782
    2    1        -3.503088       -95.3239       3.259919
    3    1        -0.144317        -3.9271       4.590560

  Assembling full basis from fixed parts.
  | Species Si :   atomic orbital   1 s accepted.
  | Species Si :   atomic orbital   2 s accepted.
  | Species Si :    ionic orbital   3 s accepted.
  | Species Si :   atomic orbital   3 s accepted.
  | Species Si :   atomic orbital   2 p accepted.
  | Species Si :   atomic orbital   3 p accepted.
  | Species Si :    hydro orbital   2 p accepted.
  | Species Si :    hydro orbital   3 d accepted.
 
  Basis size parameters after reduction:
  | Total number of radial functions:        8
  | Total number of basis functions :      144
 
  Per-task memory consumption for arrays in subroutine allocate_ext:
  |           2.071116MB.
  Testing on-site integration grid accuracy.
  |  Species  Function  <phi|h_atom|phi> (log., in eV)  <phi|h_atom|phi> (rad., in eV)
           1        1              -1773.4245382485              -1773.4238465557
           1        2               -137.7780422334               -137.7780383875
           1        3                -10.2584966028                -10.2583645750
           1        4                  5.0172755718                  4.9378117642 ***
           1        5                -95.3238759277                -95.3238759093
           1        6                 -3.9367923774                 -3.9521708118
           1        7                  6.3364624620                  6.1540591176 ***
           1        8                  6.2680607190                  6.2659437726
 * Note: Onsite integrals marked "***" above are less accurate than
 * onsite_accuracy_threshold =    0.03000 eV. Usually, this is harmless.
 * When in doubt, tighten the "radial" and/or "radial_multiplier" flags to check.

  Preparing densities etc. for the partition functions (integrals / Hartree potential).

  Preparations completed.
  max(cpu_time)          :      0.119 s.
  Wall clock time (cpu1) :      0.121 s.
------------------------------------------------------------

************************** W A R N I N G *******************************
* Skipping the SCF initialization for now - done inside wrapper      *
************************************************************************

  @ DRIVER MODE: Connecting to host:port localhost       12345
  @ DRIVER MODE: Message from server: STATUS      
  @ DRIVER MODE: Message from server: POSDATA     
  @ DRIVER MODE: Received positions 

------------------------------------------------------------
          Begin self-consistency loop: Initialization.

          Date     :  20181124, Time     :  152304.786
------------------------------------------------------------

  Initializing index lists of integration centers etc. from given atomic structure:
  Mapping all atomic coordinates to central unit cell.

  Initializing the k-points
          Using symmetry for reducing the k-points
  | k-points reduced from:        8 to        8
  | Number of k-points                             :         8
  The eigenvectors in the calculations are REAL.
  | K-points in task   0:         2
  | K-points in task   1:         2
  | K-points in task   2:         2
  | K-points in task   3:         2
  | Number of basis functions in the Hamiltonian integrals :      2156
  | Number of basis functions in a single unit cell        :       144
  | Number of centers in hartree potential         :      1026
  | Number of centers in hartree multipole         :       486
  | Number of centers in electron density summation:       324
  | Number of centers in basis integrals           :       366
  | Number of centers in integrals                 :       143
  | Number of centers in hamiltonian               :       324
  | Consuming          9 KiB for k_phase.
  | Number of super-cells (origin) [n_cells]                     :         729
  | Number of super-cells (after PM_index) [n_cells]             :          76
  | Number of super-cells in hamiltonian [n_cells_in_hamiltonian]:          76
  | Size of matrix packed + index [n_hamiltonian_matrix_size] :      168585
  Partitioning the integration grid into batches with parallel hashing+maxmin method.
  | Number of batches:      512
  | Maximal batch size:      93
  | Minimal batch size:      82
  | Average batch size:      87.562
  | Standard deviation of batch sizes:       2.778

  Integration load balanced across     4 MPI tasks.
  Work distribution over tasks is as follows:
  Task     0 has      11162 integration points.
  Task     1 has      11209 integration points.
  Task     2 has      11208 integration points.
  Task     3 has      11253 integration points.
  Initializing partition tables, free-atom densities, potentials, etc. across the integration grid (initialize_grid_storage).
  | initialize_grid_storage: Actual outermost partition radius vs. multipole_radius_free
  | (-- VB: in principle, multipole_radius_free should be larger, hence this output)
  | Species        1: Confinement radius =              4.999999999999999 AA, multipole_radius_free =              5.000694715736543 AA.
  | Species        1: outer_partition_radius set to              5.000694715736543 AA .
  | The sparse table of interatomic distances needs        468.32 kbyte instead of      1071.65 kbyte of memory.
  | Net number of integration points:    44832
  | of which are non-zero points    :    39266
  | Numerical average free-atom electrostatic potential    :    -13.09491272 eV
  Renormalizing the initial density to the exact electron count on the 3D integration grid.
  | Initial density: Formal number of electrons (from input files) :     112.0000000000
  | Integrated number of electrons on 3D grid     :     112.0201124410
  | Charge integration error                      :       0.0201124410
  | Normalization factor for density and gradient :       0.9998204569
  Obtaining max. number of non-zero basis functions in each batch (get_n_compute_maxes).
  | Maximal number of non-zero basis functions:      484 in task     0
  | Maximal number of non-zero basis functions:      467 in task     1
  | Maximal number of non-zero basis functions:      466 in task     2
  | Maximal number of non-zero basis functions:      459 in task     3
  Allocating        0.184 MB for KS_eigenvector
  Integrating Hamiltonian matrix: batch-based integration.
  Time summed over all CPUs for integration: real work        1.884 s, elapsed        1.915 s
  Integrating overlap matrix.
  Time summed over all CPUs for integration: real work        1.396 s, elapsed        1.400 s
  Decreasing sparse matrix size:
   Tolerance:  9.999999824516700E-014
   Hamiltonian matrix
  | Array has   150157 nonzero elements out of   168585 elements
  | Sparsity factor is 0.109
   Overlap matrix
  | Array has   145498 nonzero elements out of   168585 elements
  | Sparsity factor is 0.137
  New size of hamiltonian matrix:      150475

  Updating Kohn-Sham eigenvalues, eigenvectors, occupation numbers, and Fermi level.
  Solving generalized eigenproblem
  Updating Kohn-Sham eigenvalues and eigenfunctions.
  Transforming overlap matrix and checking for singularities.
  Overlap matrix is nonsingular:
  | Lowest eigenvalue at k-point        1:  0.150164E-02
  Solving real generalised eigenvalue problem by standard LAPACK (fast)
  Updating Kohn-Sham eigenvalues and eigenfunctions.
  Solving real generalised eigenvalue problem by standard LAPACK (fast)

  Obtaining occupation numbers and chemical potential using ELSI.
  | Chemical potential (Fermi level):    -5.48289907 eV
  Writing Kohn-Sham eigenvalues.
  K-point:       1 at    0.000000    0.000000    0.000000 (in units of recip. lattice)

  State    Occupation    Eigenvalue [Ha]    Eigenvalue [eV]
      1       2.00000         -65.193606        -1774.00829
      2       2.00000         -65.193606        -1774.00829
      3       2.00000         -65.193500        -1774.00540
      4       2.00000         -65.193497        -1774.00531
      5       2.00000         -65.193497        -1774.00531
      6       2.00000         -65.193497        -1774.00531
      7       2.00000         -65.193389        -1774.00238
      8       2.00000         -65.193389        -1774.00238
      9       2.00000          -5.089693         -138.49761
     10       2.00000          -5.089622         -138.49566
     11       2.00000          -5.089496         -138.49224
     12       2.00000          -5.089493         -138.49216
     13       2.00000          -5.089493         -138.49216
     14       2.00000          -5.089493         -138.49214
     15       2.00000          -5.089367         -138.48871
     16       2.00000          -5.089296         -138.48678
     17       2.00000          -3.529633          -96.04620
     18       2.00000          -3.529593          -96.04510
     19       2.00000          -3.529574          -96.04461
     20       2.00000          -3.529571          -96.04452
     21       2.00000          -3.529560          -96.04421
     22       2.00000          -3.529482          -96.04209
     23       2.00000          -3.529476          -96.04193
     24       2.00000          -3.529432          -96.04073
     25       2.00000          -3.529397          -96.03978
     26       2.00000          -3.529152          -96.03312
     27       2.00000          -3.529141          -96.03281
     28       2.00000          -3.529139          -96.03276
     29       2.00000          -3.529139          -96.03275
     30       2.00000          -3.529133          -96.03258
     31       2.00000          -3.529125          -96.03238
     32       2.00000          -3.528868          -96.02538
     33       2.00000          -3.528846          -96.02479
     34       2.00000          -3.528802          -96.02360
     35       2.00000          -3.528792          -96.02332
     36       2.00000          -3.528717          -96.02126
     37       2.00000          -3.528711          -96.02111
     38       2.00000          -3.528702          -96.02086
     39       2.00000          -3.528687          -96.02046
     40       2.00000          -3.528661          -96.01974
     41       2.00000          -0.664924          -18.09351
     42       2.00000          -0.516688          -14.05981
     43       2.00000          -0.516361          -14.05090
     44       2.00000          -0.516011          -14.04136
     45       2.00000          -0.516010          -14.04135
     46       2.00000          -0.515664          -14.03193
     47       2.00000          -0.515333          -14.02293
     48       2.00000          -0.333293           -9.06937
     49       2.00000          -0.332973           -9.06066
     50       2.00000          -0.332949           -9.06000
     51       2.00000          -0.332946           -9.05992
     52       2.00000          -0.332925           -9.05935
     53       2.00000          -0.332606           -9.05067
     54       2.00000          -0.234243           -6.37407
     55       2.00000          -0.233765           -6.36107
     56       2.00000          -0.233285           -6.34800
     57       0.00000          -0.195853           -5.32942
     58       0.00000          -0.195725           -5.32595
     59       0.00000          -0.195438           -5.31814
     60       0.00000          -0.195437           -5.31812
     61       0.00000          -0.195155           -5.31045
     62       0.00000          -0.195026           -5.30693
     63       0.00000          -0.130399           -3.54832
     64       0.00000          -0.130136           -3.54119
     65       0.00000          -0.129877           -3.53414
     66       0.00000          -0.109354           -2.97567
     67       0.00000           0.064896            1.76591
     68       0.00000           0.064900            1.76601
     69       0.00000           0.122112            3.32285
     70       0.00000           0.141094            3.83938
     71       0.00000           0.141406            3.84786
     72       0.00000           0.141541            3.85152
     73       0.00000           0.141570            3.85231
     74       0.00000           0.141667            3.85496
     75       0.00000           0.141988            3.86370
     76       0.00000           0.180793            4.91962
     77       0.00000           0.181444            4.93734
     78       0.00000           0.181497            4.93879
     79       0.00000           0.181502            4.93893
     80       0.00000           0.181565            4.94063

  What follows are estimated values for band gap, HOMO, LUMO, etc.
  | They are estimated on a discrete k-point grid and not necessarily exact.
  | For converged numbers, create a DOS and/or band structure plot on a denser k-grid.

  Highest occupied state (VBM) at     -6.34800117 eV (relative to internal zero)
  | Occupation number:      2.00000000
  | K-point:       1 at    0.000000    0.000000    0.000000 (in units of recip. lattice)

  Lowest unoccupied state (CBM) at    -5.32942432 eV (relative to internal zero)
  | Occupation number:      0.00000000
  | K-point:       1 at    0.000000    0.000000    0.000000 (in units of recip. lattice)

  ESTIMATED overall HOMO-LUMO gap:      1.01857685 eV between HOMO at k-point 1 and LUMO at k-point 1
  | This appears to be a direct band gap.
  The gap value is above 0.2 eV. Unless you are using a very sparse k-point grid,
  this system is most likely an insulator or a semiconductor.
  Calculating total energy contributions from superposition of free atom densities.

  Total energy components:
  | Sum of eigenvalues            :       -1307.16591541 Ha      -35569.79432943 eV
  | XC energy correction          :        -158.15692657 Ha       -4303.66894027 eV
  | XC potential correction       :         208.94670962 Ha        5685.72925548 eV
  | Free-atom electrostatic energy:       -1050.91086305 Ha      -28596.73956967 eV
  | Hartree energy correction     :           0.00000000 Ha           0.00000000 eV
  | Entropy correction            :          -0.00000000 Ha          -0.00000000 eV
  | ---------------------------
  | Total energy                  :       -2307.28699541 Ha      -62784.47358389 eV
  | Total energy, T -> 0          :       -2307.28699541 Ha      -62784.47358389 eV  <-- do not rely on this value for anything but (periodic) metals
  | Electronic free energy        :       -2307.28699541 Ha      -62784.47358389 eV

  Derived energy quantities:
  | Kinetic energy                :        2302.06073647 Ha       62642.25984253 eV
  | Electrostatic energy          :       -4451.19080531 Ha     -121123.06448615 eV
  | Energy correction for multipole
  | error in Hartree potential    :           0.00000000 Ha           0.00000000 eV
  | Sum of eigenvalues per atom                           :       -4446.22429118 eV
  | Total energy (T->0) per atom                          :       -7848.05919799 eV  <-- do not rely on this value for anything but (periodic) metals
  | Electronic free energy per atom                       :       -7848.05919799 eV
  Initialize hartree_potential_storage
  Max. number of atoms included in rho_multipole:            8

  End scf initialization - timings             :  max(cpu_time)    wall_clock(cpu1)
  | Time for scf. initialization               :        1.457 s           1.458 s
  | Boundary condition initialization          :        0.084 s           0.084 s
  | Integration                                :        0.835 s           0.835 s
  | Solution of K.-S. eqns.                    :        0.032 s           0.032 s
  | Grid partitioning                          :        0.068 s           0.068 s
  | Preloading free-atom quantities on grid    :        0.002 s           0.002 s
  | Free-atom superposition energy             :        0.064 s           0.065 s
  | Total energy evaluation                    :        0.000 s           0.000 s

  Partial memory accounting:
  | Current value for overall tracked memory usage on task 0  :           3.195 MB
  | Peak value for overall tracked memory usage on task 0     :           6.871 MB after allocating wave_s
  | Largest tracked array allocation on task 0 so far         :           1.874 MB  when allocating hamiltonian_shell
  Note:  These values currently only include a subset of arrays which are explicitly tracked.
  The "true" memory usage will be greater.
------------------------------------------------------------
Convergence:    q app. |  density  | eigen (eV) | Etot (eV) | forces (eV/A) |       CPU time |     Clock time
  SCF    1 :  0.21E-01 |  0.22E+00 |   0.46E+02 |  0.67E+00 |             . |        1.857 s |        1.857 s
  SCF    2 :  0.21E-01 |  0.11E+00 |   0.32E+02 |  0.15E+00 |             . |        2.040 s |        2.040 s
  SCF    3 :  0.20E-01 |  0.17E-01 |  -0.16E+02 |  0.19E-01 |             . |        2.139 s |        2.139 s
  SCF    4 :  0.20E-01 |  0.42E-02 |   0.29E+01 | -0.42E-03 |             . |        2.042 s |        2.044 s
  SCF    5 :  0.20E-01 |  0.25E-02 |  -0.22E+01 |  0.15E-02 |             . |        2.181 s |        2.181 s
  SCF    6 :  0.20E-01 |  0.14E-03 |  -0.10E+00 |  0.29E-04 |             . |        1.880 s |        1.879 s
  SCF    7 :  0.20E-01 |  0.25E-04 |  -0.17E-01 |  0.14E-05 |             . |        2.064 s |        2.064 s
  SCF    8 :  0.20E-01 |  0.55E-05 |   0.10E-02 | -0.70E-06 |      0.55E-01 |        8.640 s |        8.640 s

  Total energy components:
  | Sum of eigenvalues            :       -1304.86255245 Ha      -35507.11663442 eV
  | XC energy correction          :        -158.36060674 Ha       -4309.21135979 eV
  | XC potential correction       :         209.21478824 Ha        5693.02404586 eV
  | Free-atom electrostatic energy:       -1050.91086305 Ha      -28596.73956967 eV
  | Hartree energy correction     :          -2.33704654 Ha         -63.59427196 eV
  | Entropy correction            :           0.00000000 Ha           0.00000000 eV
  | ---------------------------
  | Total energy                  :       -2307.25628055 Ha      -62783.63778998 eV
  | Total energy, T -> 0          :       -2307.25628055 Ha      -62783.63778998 eV  <-- do not rely on this value for anything but (periodic) metals
  | Electronic free energy        :       -2307.25628055 Ha      -62783.63778998 eV

  Derived energy quantities:
  | Kinetic energy                :        2301.62794731 Ha       62630.48305021 eV
  | Electrostatic energy          :       -4450.52362111 Ha     -121104.90948040 eV
  | Energy correction for multipole
  | error in Hartree potential    :           0.06114271 Ha           1.66377790 eV
  | Sum of eigenvalues per atom                           :       -4438.38957930 eV
  | Total energy (T->0) per atom                          :       -7847.95472375 eV  <-- do not rely on this value for anything but (periodic) metals
  | Electronic free energy per atom                       :       -7847.95472375 eV
  What follows are estimated values for band gap, HOMO, LUMO, etc.
  | They are estimated on a discrete k-point grid and not necessarily exact.
  | For converged numbers, create a DOS and/or band structure plot on a denser k-grid.

  Highest occupied state (VBM) at     -5.80721131 eV (relative to internal zero)
  | Occupation number:      2.00000000
  | K-point:       1 at    0.000000    0.000000    0.000000 (in units of recip. lattice)

  Lowest unoccupied state (CBM) at    -5.17707330 eV (relative to internal zero)
  | Occupation number:      0.00000000
  | K-point:       1 at    0.000000    0.000000    0.000000 (in units of recip. lattice)

  ESTIMATED overall HOMO-LUMO gap:      0.63013801 eV between HOMO at k-point 1 and LUMO at k-point 1
  | This appears to be a direct band gap.
  The gap value is above 0.2 eV. Unless you are using a very sparse k-point grid,
  this system is most likely an insulator or a semiconductor.

  Self-consistency cycle converged.

  Removing unitary transformations (pure translations, rotations) from forces on atoms.
  Atomic forces before filtering:
  | Net force on center of mass :  -0.194932E-05 -0.151845E-08 -0.119511E-08 eV/A
  Atomic forces after filtering:
  | Net force on center of mass :  -0.501767E-16 -0.278760E-17  0.278760E-17 eV/A

  Energy and forces in a compact form:
  | Total energy uncorrected      :         -0.627836377899779E+05 eV
  | Total energy corrected        :         -0.627836377899779E+05 eV  <-- do not rely on this value for anything but (periodic) metals
  | Electronic free energy        :         -0.627836377899779E+05 eV
  Total atomic forces (unitary forces cleaned) [eV/Ang]:
  |   1         -0.132517005013973E+00          0.665706935956004E-10         -0.141304318030473E-08
  |   2         -0.198649138583225E-01          0.390888136814937E-09          0.135907813804377E-09
  |   3          0.495894250968045E-02         -0.404417328942511E-09         -0.670459734829893E-09
  |   4          0.495893982372590E-02          0.265375325862058E-08          0.974879839848719E-09
  |   5          0.357458699187189E-01          0.248334399644202E-01          0.248334411831409E-01
  |   6          0.357458704292630E-01         -0.248334417534424E-01         -0.248334382951202E-01
  |   7          0.354861470754360E-01         -0.242382261479496E-01          0.242382229095977E-01
  |   8          0.354861491154712E-01          0.242382252301770E-01         -0.242382248249031E-01

  Removing unitary transformations (pure translations, rotations) from forces on atoms.
  Atomic forces before filtering:
  | Net force on center of mass :  -0.501767E-16 -0.278760E-17  0.278760E-17 eV/A
  Atomic forces after filtering:
  | Net force on center of mass :  -0.557519E-17 -0.278760E-17  0.278760E-17 eV/A
  @ DRIVER - WARNING: the stress tensor will not be computed
 ------------------------------------------------------------------------
 Atomic structure that was used in the preceding time step of the wrapper
                         x [A]             y [A]             z [A]
  lattice_vector         5.43999999        0.00000000        0.00000000
  lattice_vector         0.00000000        5.43999999        0.00000000
  lattice_vector        -0.00000000       -0.00000000        5.43999999

            atom         0.01000000        0.00000000        0.00000000  Si
            atom         0.00000000        2.72000000        2.72000000  Si
            atom         2.72000000        0.00000000        2.72000000  Si
            atom         2.72000000        2.72000000        0.00000000  Si
            atom         1.36000000        1.36000000        1.36000000  Si
            atom         1.36000000       -1.36000000       -1.36000000  Si
            atom        -1.36000000        1.36000000       -1.36000000  Si
            atom        -1.36000000       -1.36000000        1.36000000  Si
 ------------------------------------------------------------------------
  @ DRIVER MODE: Message from server: STATUS      
  @ DRIVER MODE: Message from server: GETFORCE    
  @ DRIVER MODE: Returning v,forces,stress 

------------------------------------------------------------------------------
  Final output of selected total energy values:

  The following output summarizes some interesting total energy values
  at the end of a run (AFTER all relaxation, molecular dynamics, etc.).

  | Total energy of the DFT / Hartree-Fock s.c.f. calculation      :         -62783.637789978 eV
  | Final zero-broadening corrected energy (caution - metals only) :         -62783.637789978 eV
  | For reference only, the value of 1 Hartree used in FHI-aims is :             27.211384500 eV
  | For reference only, the overall average (free atom contribution
  | + realspace contribution) of the electrostatic potential after
  | s.c.f. convergence is                                          :            -12.779785270 eV

  Before relying on these values, please be sure to understand exactly which
  total energy value is referred to by a given number. Different objects may
  all carry the same name 'total energy'. Definitions:

  Total energy of the DFT / Hartree-Fock s.c.f. calculation:
  | Note that this energy does not include ANY quantities calculated after the
  | s.c.f. cycle, in particular not ANY RPA, MP2, etc. many-body perturbation terms.

  Final zero-broadening corrected energy:
  | For metallic systems only, a broadening of the occupation numbers at the Fermi
  | level can be extrapolated back to zero broadening by an electron-gas inspired
  | formula. For all systems that are not real metals, this value can be
  | meaningless and should be avoided.

------------------------------------------------------------------------------
  Methods described in the following list of references were used in this FHI-aims run.
  If you publish the results, please make sure to cite these reference if they apply.
  FHI-aims is an academic code, and for our developers (often, Ph.D. students
  and postdocs), scientific credit in the community is essential.
  Thank you for helping us!

  For any use of FHI-aims, please cite:

    Volker Blum, Ralf Gehrke, Felix Hanke, Paula Havu, Ville Havu,
    Xinguo Ren, Karsten Reuter, and Matthias Scheffler
    'Ab initio molecular simulations with numeric atom-centered orbitals'
    Computer Physics Communications 180, 2175-2196 (2009)
    http://dx.doi.org/10.1016/j.cpc.2009.06.022


  The provided symmetry information was generated with SPGlib:

    Atsushi Togo, Yusuke Seto, Dimitar Pashov
    SPGlib 1.7.3 obtained from http://spglib.sourceforge.net
    Copyright (C) 2008 Atsushi Togo


  For the real-space grid partitioning and parallelization used in this calculation, please cite:

    Ville Havu, Volker Blum, Paula Havu, and Matthias Scheffler,
    'Efficient O(N) integration for all-electron electronic structure calculation'
    'using numerically tabulated basis functions'
    Journal of Computational Physics 228, 8367-8379 (2009).
    http://dx.doi.org/10.1016/j.jcp.2009.08.008

  Of course, there are many other important community references, e.g., those cited in the
  above references. Our list is limited to references that describe implementations in the
  FHI-aims code. The reason is purely practical (length of this list) - please credit others as well.

------------------------------------------------------------
          Leaving FHI-aims.
          Date     :  20181124, Time     :  152329.149

          Computational steps:
          | Number of self-consistency cycles          :            8
          | Number of SCF (re)initializations          :            1

          Detailed time accounting                     :  max(cpu_time)    wall_clock(cpu1)
          | Total time                                 :       24.528 s          24.533 s
          | Preparation time                           :        0.119 s           0.121 s
          | Boundary condition initalization           :        0.084 s           0.084 s
          | Grid partitioning                          :        0.068 s           0.068 s
          | Preloading free-atom quantities on grid    :        0.002 s           0.002 s
          | Free-atom superposition energy             :        0.064 s           0.065 s
          | Total time for integrations                :        5.147 s           5.147 s
          | Total time for solution of K.-S. equations :        0.118 s           0.117 s
          | Total time for density & force components  :        7.861 s           7.863 s
          | Total time for mixing & preconditioning    :        0.829 s           0.830 s
          | Total time for Hartree multipole update    :        0.021 s           0.019 s
          | Total time for Hartree multipole sum       :        9.729 s           9.732 s
          | Total time for total energy evaluation     :        0.001 s           0.000 s

          Partial memory accounting:
          | Residual value for overall tracked memory usage across tasks :     0.000000 MB (should be 0.000000 MB)
          | Peak values for overall tracked memory usage (after allocating d_wave):
          |   Minimum:        9.662 MB (on task 4)
          |   Maximum:       10.111 MB (on task 1)
          |   Average:        9.841 MB
          | Largest tracked array allocation (hamiltonian_shell):
          |   Minimum:        1.685 MB (on task 4)
          |   Maximum:        1.874 MB (on task 1)
          |   Average:        1.760 MB
          Note:  These values currently only include a subset of arrays which are explicitly tracked.
          The "true" memory usage will be greater.

------------------------------------------------------------
