  MPI-parallelism will be employed.
------------------------------------------------------------
          Invoking FHI-aims ...

          When using FHI-aims, please cite the following reference:

          Volker Blum, Ralf Gehrke, Felix Hanke, Paula Havu,
          Ville Havu, Xinguo Ren, Karsten Reuter, and Matthias Scheffler,
          'Ab Initio Molecular Simulations with Numeric Atom-Centered Orbitals',
          Computer Physics Communications 180, 2175-2196 (2009)

          For any questions about FHI-aims, please visit the aimsclub website
          with its forums and wiki. Contributions to both the forums and the
          wiki are warmly encouraged - they are for you, and everyone is welcome there.

------------------------------------------------------------



  Date     :  20181117, Time     :  011010.157
  Time zero on CPU 1             :   0.180800000000000E-01  s.
  Internal wall clock time zero  :           311649010.157  s.

  FHI-aims created a unique identifier for this run for later identification
  aims_uuid : 0E9E536A-4C41-44E1-A059-9234CDD063F7

  Build configuration of the current instance of FHI-aims
  -------------------------------------------------------
  FHI-aims version      : 181025
  Commit number         : 436c0fce9
  CMake host system     : Linux-4.15.0-38-generic
  CMake version         : 3.5.1
  Fortran compiler      : /home/knoop/local/openmpi-3.0.0/build/bin/mpifort (Intel) version 17.0.1.20161005
  Fortran compiler flags: -O3 -ip -fp-model precise -xHOST
  C compiler            : /usr/bin/gcc (GNU) version 8.1.0
  C compiler flags      : -O3
  Architecture          :
  Using MPI
  Using C files
  Using SPGlib
  Using i-PI
  Linking against: /home/knoop/local/anaconda3/pkgs/mkl-2019.0-118/lib/libmkl_intel_lp64.so
                   /home/knoop/local/anaconda3/pkgs/mkl-2019.0-118/lib/libmkl_sequential.so
                   /home/knoop/local/anaconda3/pkgs/mkl-2019.0-118/lib/libmkl_core.so
                   /home/knoop/local/anaconda3/pkgs/mkl-2019.0-118/lib/libmkl_blacs_intelmpi_lp64.so
                   /home/knoop/local/anaconda3/pkgs/mkl-2019.0-118/lib/libmkl_scalapack_lp64.so

  Using        4 parallel tasks.
  Task        0 on host theobook135 reporting.
  Task        1 on host theobook135 reporting.
  Task        2 on host theobook135 reporting.
  Task        3 on host theobook135 reporting.

  Performing system and environment tests:
  *** Environment variable OMP_NUM_THREADS is not set
  *** For performance reasons you might want to set it to 1
  | Maximum stacksize for task 0: unlimited
  | Maximum stacksize for task 1: unlimited
  | Maximum stacksize for task 2: unlimited
  | Maximum stacksize for task 3: unlimited
  | Current stacksize for task 0: unlimited
  | Current stacksize for task 1: unlimited
  | Current stacksize for task 2: unlimited
  | Current stacksize for task 3: unlimited
  | Checking for scalapack...
  | No scalapack compiled in.

  Obtaining array dimensions for all initial allocations:
  
  -----------------------------------------------------------------------
  Parsing control.in (first pass over file, find array dimensions only).
  The contents of control.in will be repeated verbatim below
  unless switched off by setting 'verbatim_writeout .false.' .
  in the first line of control.in .
  -----------------------------------------------------------------------
  
  #===============================================================================
  # FHI-aims file: ./control.in
  # Created using the Atomic Simulation Environment (ASE)
  # Sat Nov 17 01:10:10 2018
  #
  # List of parameters used to initialize the calculator:
  #     xc : pbesol
  #     relativistic : atomic_zora scalar
  #     k_grid : [4, 4, 4]
  #     vdw_correction_hirshfeld : False
  #     output_level : MD_light
  #     compute_forces : True
  #     compute_analytical_stress : True
  #     sc_accuracy_rho : 1e-06
  #     use_pimd_wrapper : ('localhost', 12345)
  #     species_dir : /home/knoop/FHIaims/aimsfiles/species_defaults/light
  #===============================================================================
  xc                                 pbesol
  relativistic                       atomic_zora scalar
  k_grid                             4 4 4
  vdw_correction_hirshfeld           .false.
  output_level                       MD_light
  compute_forces                     .true.
  compute_analytical_stress          .true.
  sc_accuracy_rho                    1e-06
  use_pimd_wrapper                   localhost 12345
  #===============================================================================
  
  ################################################################################
  #
  #  FHI-aims code project
  #  VB, Fritz-Haber Institut, 2009
  #
  #  Suggested "light" defaults for Si atom (to be pasted into control.in file)
  #  Be sure to double-check any results obtained with these settings for post-processing,
  #  e.g., with the "tight" defaults and larger basis sets.
  #
  ################################################################################
    species        Si
  #     global species definitions
      nucleus             14
      mass                28.0855
  #
      l_hartree           4
  #
      cut_pot             3.5          1.5  1.0
      basis_dep_cutoff    1e-4
  #
      radial_base         42 5.0
      radial_multiplier   1
      angular_grids       specified
        division   0.5866   50
        division   0.9616  110
        division   1.2249  194
        division   1.3795  302
  #      division   1.4810  434
  #      division   1.5529  590
  #      division   1.6284  770
  #      division   1.7077  974
  #      division   2.4068 1202
  #      outer_grid   974
        outer_grid 302
  ################################################################################
  #
  #  Definition of "minimal" basis
  #
  ################################################################################
  #     valence basis states
      valence      3  s   2.
      valence      3  p   2.
  #     ion occupancy
      ion_occ      3  s   1.
      ion_occ      3  p   1.
  ################################################################################
  #
  #  Suggested additional basis functions. For production calculations,
  #  uncomment them one after another (the most important basis functions are
  #  listed first).
  #
  #  Constructed for dimers: 1.75 A, 2.0 A, 2.25 A, 2.75 A, 3.75 A
  #
  ################################################################################
  #  "First tier" - improvements: -571.96 meV to -37.03 meV
       hydro 3 d 4.2
       hydro 2 p 1.4
  #     hydro 4 f 6.2
       ionic 3 s auto
  #  "Second tier" - improvements: -16.76 meV to -3.03 meV
  #     hydro 3 d 9
  #     hydro 5 g 9.4
  #     hydro 4 p 4
  #     hydro 1 s 0.65
  #  "Third tier" - improvements: -3.89 meV to -0.60 meV
  #     ionic 3 d auto
  #     hydro 3 s 2.6
  #     hydro 4 f 8.4
  #     hydro 3 d 3.4
  #     hydro 3 p 7.8
  #  "Fourth tier" - improvements: -0.33 meV to -0.11 meV
  #     hydro 2 p 1.6
  #     hydro 5 g 10.8
  #     hydro 5 f 11.2
  #     hydro 3 d 1
  #     hydro 4 s 4.5
  #  Further basis functions that fell out of the optimization - noise
  #  level... < -0.08 meV
  #     hydro 4 d 6.6
  #     hydro 5 g 16.4
  #     hydro 4 d 9
  
  -----------------------------------------------------------------------
  Completed first pass over input file control.in .
  -----------------------------------------------------------------------
  
  
  -----------------------------------------------------------------------
  Parsing geometry.in (first pass over file, find array dimensions only).
  The contents of geometry.in will be repeated verbatim below
  unless switched off by setting 'verbatim_writeout .false.' .
  in the first line of geometry.in .
  -----------------------------------------------------------------------
  
  #=======================================================
  # FHI-aims file: ./geometry.in
  # Created using the Atomic Simulation Environment (ASE)
  # Sat Nov 17 01:10:10 2018
  #=======================================================
  lattice_vector 0.0000000000000000 2.7999999999999998 2.7999999999999998
  lattice_vector 2.7999999999999998 0.0000000000000000 2.7999999999999998
  lattice_vector 2.7999999999999998 2.7999999999999998 0.0000000000000000
  atom 0.0000000000000000 0.0000000000000000 0.0000000000000000 Si
  atom 1.3999999999999999 1.3999999999999999 1.3999999999999999 Si
  
  -----------------------------------------------------------------------
  Completed first pass over input file geometry.in .
  -----------------------------------------------------------------------
  

  Basic array size parameters:
  | Number of species                 :        1
  | Number of atoms                   :        2
  | Number of lattice vectors         :        3
  | Max. basis fn. angular momentum   :        2
  | Max. atomic/ionic basis occupied n:        3
  | Max. number of basis fn. types    :        3
  | Max. radial fns per species/type  :        5
  | Max. logarithmic grid size        :     1346
  | Max. radial integration grid size :       42
  | Max. angular integration grid size:      302
  | Max. angular grid division number :        8
  | Radial grid for Hartree potential :     1346
  | Number of spin channels           :        1

------------------------------------------------------------
          Reading file control.in.
------------------------------------------------------------
  XC: Using PBEsol gradient-corrected functionals.
  Scalar relativistic treatment of kinetic energy: on-site free-atom approximation to ZORA.
  Found k-point grid:         4         4         4
  Requested output level: MD_light            
  Forces will be computed.
  Convergence accuracy of self-consistent charge density:  0.1000E-05
  Using external wrapper (i-PI) for performing (path integral) molecular dynamics
  **Attention: initial geometry.in file will be ignored!
 
  Reading configuration options for species Si                  .
  | Found nuclear charge :  14.0000
  | Found atomic mass :    28.0855000000000      amu
  | Found l_max for Hartree potential  :   4
  | Found cutoff potl. onset [A], width [A], scale factor :    3.50000    1.50000    1.00000
  | Threshold for basis-dependent cutoff potential is   0.100000E-03
  | Found data for basic radial integration grid :    42 points, outermost radius =    5.000 A
  | Found multiplier for basic radial grid :   1
  | Found angular grid specification: user-specified.
  | Specified grid contains     5 separate shells.
  | Check grid settings after all constraints further below.
  | Found free-atom valence shell :  3 s   2.000
  | Found free-atom valence shell :  3 p   2.000
  | Found free-ion valence shell :  3 s   1.000
  | Found free-ion valence shell :  3 p   1.000
  | Found hydrogenic basis function :  3 d   4.200
  | Found hydrogenic basis function :  2 p   1.400
  | Found ionic basis function :  3 s , default cutoff radius.
  Species Si                  : Missing cutoff potential type.
  Defaulting to exp(1/x)/(1-x)^2 type cutoff potential.
  Species Si: No 'logarithmic' tag. Using default grid for free atom:
  | Default logarithmic grid data [bohr] : 0.1000E-03 0.1000E+03 0.1012E+01
  | Will include ionic basis functions of  2.0-fold positive Si                   ion.
  Species Si: On-site basis accuracy parameter (for Gram-Schmidt orthonormalisation) not specified.
  Using default value basis_acc =  0.1000000E-03.
  Species Si                  : Using default innermost maximum threshold i_radial=  2 for radial functions.
  Species Si                  : Default cutoff onset for free atom density etc. : 0.35000000E+01 AA.
  Species Si                  : Basic radial grid will be enhanced according to radial_multiplier =   1, to contain    42 grid points.
 
  Finished reading input file 'control.in'. Consistency checks are next.
 
  MPI_IN_PLACE appears to work with this MPI implementation.
  | Keeping use_mpi_in_place .true. (see manual).
  Target number of points in a grid batch is not set. Defaulting to  100
  Method for grid partitioning is not set. Defaulting to parallel hash+maxmin partitioning.
  Batch size limit is not set. Defaulting to    200
  By default, will store active basis functions for each batch.
  If in need of memory, prune_basis_once .false. can be used to disable this option.
  communication_type for Hartree potential was not specified.
  Defaulting to calc_hartree .
  Defaulting to Pulay charge density mixer.
  Pulay mixer: Number of relevant iterations not set.
  Defaulting to    8 iterations.
  Pulay mixer: Number of initial linear mixing iterations not set.
  Defaulting to    0 iterations.
  Work space size for distributed Hartree potential not set.
  Defaulting to   0.200000E+03 MB.
  Mixing parameter for charge density mixing has not been set.
  Using default: charge_mix_param =     0.0500.
  The mixing parameter will be adjusted in iteration number     2 of the first full s.c.f. cycle only.
  Algorithm-dependent basis array size parameters:
  | n_max_pulay                         :        8
  Maximum number of self-consistency iterations not provided.
  Presetting  1000 iterations.
  Presetting      1001 iterations before the initial mixing cycle
  is restarted anyway using the sc_init_iter criterion / keyword.
  Presetting a factor      1.000 between actual scf density residual
  and density convergence criterion sc_accuracy_rho below which sc_init_iter
  takes no effect.
  Geometry relaxation not requested: no relaxation will be performed.
  Analytical stress will be computed.
  Analytical stress calculation: Only the upper triangle is calculated.
                                 Final output is symmetrized.
  Analytical stress calculation: scf convergence accuracy of stress not set.
                                 Analytical stress self-consistency will not be checked explicitly.
                                 Be sure to set other criteria like sc_accuracy_rho tight enough.
  Force calculation: scf convergence accuracy of forces not set.
  Defaulting to 'sc_accuracy_forces not_checked'.
  Handling of forces: Unphysical translation and rotation will be removed from forces.
  No accuracy limit for integral partition fn. given. Defaulting to  0.1000E-14.
  No threshold value for u(r) in integrations given. Defaulting to  0.1000E-05.
  No occupation type (smearing scheme) given. Defaulting to Gaussian broadening, width =  0.1000E-01 eV.
  The width will be adjusted in iteration number     2 of the first full s.c.f. cycle only.
  S.C.F. convergence parameters will be adjusted in iteration number     2 of the first full s.c.f. cycle only.
  No accuracy for occupation numbers given. Defaulting to  0.1000E-12.
  No threshold value for occupation numbers given. Defaulting to  0.0000E+00.
  No accuracy for fermi level given. Defaulting to  0.1000E-19.
  Maximum # of iterations to find E_F not set. Defaulting to  200.
  Preferred method for the eigenvalue solver ('KS_method') not specified in 'control.in'.
  Defaulting to serial version, 'lapack_fast', since more k-points than CPUs available.
  Will not use alltoall communication since running on < 1024 CPUs.
  Threshold for basis singularities not set.
  Default threshold for basis singularities:  0.1000E-04
  partition_type (choice of integration weights) for integrals was not specified.
  | Using a version of the partition function of Stratmann and coworkers ('stratmann_sparse').
  | At each grid point, the set of atoms used to build the partition table is smoothly restricted to
  | only those atoms whose free-atom density would be non-zero at that grid point.
  Partitioning for Hartree potential was not defined. Using partition_type for integrals.
  | Adjusted default value of keyword multip_moments_threshold to:       0.10000000E-11
  | This value may affect high angular momentum components of the Hartree potential in periodic systems.
  Spin handling was not defined in control.in. Defaulting to unpolarized case.
  Angular momentum expansion for Kerker preconditioner not set explicitly.
  | Using default value of   0
  No explicit requirement for turning off preconditioner.
  | By default, it will be turned off when the charge convergence reaches
  | sc_accuracy_rho  =   0.100000E-05
  No special mixing parameter while Kerker preconditioner is on.
  Using default: charge_mix_param =     0.0500.
  No q(lm)/r^(l+1) cutoff set for long-range Hartree potential.
  | Using default value of  0.100000E-09 .
  | Verify using the multipole_threshold keyword.
  Defaulting to new monopole extrapolation.
  Density update method: automatic selection selected.
  Using density matrix based charge density update.
  Using density matrix based charge density update.
  Using packed matrix style: index .
  Defaulting to use time-reversal symmetry for k-point grid.
------------------------------------------------------------


------------------------------------------------------------
          Reading geometry description geometry.in.
------------------------------------------------------------
  Input structure read successfully.
  The structure contains        2 atoms,  and a total of         28.000 electrons.

  Input geometry:
  | Unit cell:
  |        0.00000000        2.80000000        2.80000000
  |        2.80000000        0.00000000        2.80000000
  |        2.80000000        2.80000000        0.00000000
  | Atomic structure:
  |       Atom                x [A]            y [A]            z [A]
  |    1: Species Si            0.00000000        0.00000000        0.00000000
  |    2: Species Si            1.40000000        1.40000000        1.40000000

  Lattice parameters for 3D lattice (in Angstroms) :     3.959798    3.959798    3.959798
  Angle(s) between unit vectors (in degrees)       :    60.000000   60.000000   60.000000

  |

  | The smallest distance between any two atoms is         2.42487113 AA.
  |
  | The first atom of this pair is atom number                      1 .
  | The second atom of this pair is atom number                     2 .
  | Wigner-Seitz cell of the first atom image           0     1     0 .
  | (The Wigner-Seitz cell of the second atom is 0 0 0  by definition.)

  Symmetry information by spglib:
  | Precision set to  0.1E-04
  | Number of Operations  : 48
  | Space group           : 227
  | International         : Fd-3m    d
  | Schoenflies           : Oh^7

  Quantities derived from the lattice vectors:
  | Reciprocal lattice vector 1: -1.121997  1.121997  1.121997
  | Reciprocal lattice vector 2:  1.121997 -1.121997  1.121997
  | Reciprocal lattice vector 3:  1.121997  1.121997 -1.121997
  | Unit cell volume                               :   0.439040E+02  A^3

  Range separation radius for Ewald summation (hartree_convergence_parameter):      4.02196949 bohr.

  Number of empty states per atom not set in control.in - providing a guess from actual geometry.
  | Total number of empty states used during s.c.f. cycle:        6
  If you use a very high smearing, use empty_states (per atom!) in control.in to increase this value.

  Structure-dependent array size parameters: 
  | Maximum number of distinct radial functions  :        8
  | Maximum number of basis functions            :       36
  | Number of Kohn-Sham states (occupied + empty):       20
------------------------------------------------------------

************************** W A R N I N G *******************************
* You are using the PIMD wrapper. Specifications and positions         *
* in geometry.in will be IGNORED - all is received from the wrapper.   *
* Please make sure species are declared in the same order in           *
* geometry.in and wrapper input.                                       *
************************************************************************


------------------------------------------------------------
          Preparing all fixed parts of the calculation.
------------------------------------------------------------
  Determining machine precision:
    2.225073858507201E-308
  Setting up grids for atomic and cluster calculations.

  Creating wave function, potential, and density for free atoms.

  Species: Si

  List of occupied orbitals and eigenvalues:
    n    l              occ      energy [Ha]    energy [eV]
    1    0           2.0000       -65.767597     -1789.6274
    2    0           2.0000        -5.115610      -139.2028
    3    0           2.0000        -0.388877       -10.5819
    2    1           6.0000        -3.500197       -95.2452
    3    1           2.0000        -0.140803        -3.8315

  Creating fixed part of basis set: Ionic, confined, hydrogenic.
 
  Si                   ion:

  List of free ionic orbitals and eigenvalues:
    n    l      energy [Ha]    energy [eV]
    1    0       -66.641157     -1813.3982
    2    0        -5.964274      -162.2962
    3    0        -1.073878       -29.2217
    2    1        -4.350005      -118.3697
    3    1        -0.776571       -21.1316


  List of ionic basis orbitals and eigenvalues:
    n    l      energy [Ha]    energy [eV]    outer radius [A]
    3    0        -1.073857       -29.2211       4.214062

 
  Si                   hydrogenic:
 
  List of hydrogenic basis orbitals: 
    n    l      effective z      eigenvalue [eV]  inner max. [A]     outer max. [A]     outer radius [A]   
    3    2         4.200000       -26.6624           1.139231           1.139231           4.534782
    2    1         1.400000        -6.4613           1.472672           1.472672           4.590560
 

  Adding cutoff potential to free-atom effective potential.
  Creating atomic-like basis functions for current effective potential.

  Species Si                  :

  List of atomic basis orbitals and eigenvalues:
    n    l      energy [Ha]    energy [eV]    outer radius [A]
    1    0       -65.767597     -1789.6274       0.789468
    2    0        -5.115610      -139.2028       2.815114
    3    0        -0.388877       -10.5819       4.534782
    2    1        -3.500197       -95.2452       3.259919
    3    1        -0.140803        -3.8315       4.590560

  Assembling full basis from fixed parts.
  | Species Si :   atomic orbital   1 s accepted.
  | Species Si :   atomic orbital   2 s accepted.
  | Species Si :    ionic orbital   3 s accepted.
  | Species Si :   atomic orbital   3 s accepted.
  | Species Si :   atomic orbital   2 p accepted.
  | Species Si :   atomic orbital   3 p accepted.
  | Species Si :    hydro orbital   2 p accepted.
  | Species Si :    hydro orbital   3 d accepted.
 
  Basis size parameters after reduction:
  | Total number of radial functions:        8
  | Total number of basis functions :       36
 
  Per-task memory consumption for arrays in subroutine allocate_ext:
  |           2.757868MB.
  Testing on-site integration grid accuracy.
  |  Species  Function  <phi|h_atom|phi> (log., in eV)  <phi|h_atom|phi> (rad., in eV)
           1        1              -1789.6273740966              -1789.6266345813
           1        2               -139.2028173376               -139.2028132357
           1        3                -10.2237226190                -10.2235219160
           1        4                  5.6355365073                  5.5558633521 ***
           1        5                -95.2452114632                -95.2452114537
           1        6                 -3.8413965043                 -3.8571292824
           1        7                  6.4035522332                  6.2277973139 ***
           1        8                  6.3860095444                  6.3839142324
 * Note: Onsite integrals marked "***" above are less accurate than
 * onsite_accuracy_threshold =    0.03000 eV. Usually, this is harmless.
 * When in doubt, tighten the "radial" and/or "radial_multiplier" flags to check.

  Preparing densities etc. for the partition functions (integrals / Hartree potential).

  Preparations completed.
  max(cpu_time)          :      0.112 s.
  Wall clock time (cpu1) :      0.114 s.
------------------------------------------------------------

************************** W A R N I N G *******************************
* Skipping the SCF initialization for now - done inside wrapper      *
************************************************************************

  @ DRIVER MODE: Connecting to host:port localhost       12345
  @ DRIVER MODE: Message from server: STATUS      
  @ DRIVER MODE: Message from server: POSDATA     
  @ DRIVER MODE: Received positions 

------------------------------------------------------------
          Begin self-consistency loop: Initialization.

          Date     :  20181117, Time     :  011010.326
------------------------------------------------------------

  Initializing index lists of integration centers etc. from given atomic structure:
  Mapping all atomic coordinates to central unit cell.

  Initializing the k-points
          Using symmetry for reducing the k-points
  | k-points reduced from:       64 to       36
  | Number of k-points                             :        36
  The eigenvectors in the calculations are COMPLEX.
  | K-points in task   0:         9
  | K-points in task   1:         9
  | K-points in task   2:         9
  | K-points in task   3:         9
  | Number of basis functions in the Hamiltonian integrals :      1246
  | Number of basis functions in a single unit cell        :        36
  | Number of centers in hartree potential         :       708
  | Number of centers in hartree multipole         :       318
  | Number of centers in electron density summation:       190
  | Number of centers in basis integrals           :       198
  | Number of centers in integrals                 :       101
  | Number of centers in hamiltonian               :       190
  | Consuming         63 KiB for k_phase.
  | Number of super-cells (origin) [n_cells]                     :        2197
  | Number of super-cells (after PM_index) [n_cells]             :         112
  | Number of super-cells in hamiltonian [n_cells_in_hamiltonian]:         112
  | Size of matrix packed + index [n_hamiltonian_matrix_size] :       39615
  Partitioning the integration grid into batches with parallel hashing+maxmin method.
  | Number of batches:      137
  | Maximal batch size:     111
  | Minimal batch size:      52
  | Average batch size:      81.810
  | Standard deviation of batch sizes:      15.462

  Integration load balanced across     4 MPI tasks.
  Work distribution over tasks is as follows:
  Task     0 has       2842 integration points.
  Task     1 has       2811 integration points.
  Task     2 has       2792 integration points.
  Task     3 has       2763 integration points.
  Initializing partition tables, free-atom densities, potentials, etc. across the integration grid (initialize_grid_storage).
  | initialize_grid_storage: Actual outermost partition radius vs. multipole_radius_free
  | (-- VB: in principle, multipole_radius_free should be larger, hence this output)
  | Species        1: Confinement radius =              4.999999999999999 AA, multipole_radius_free =              5.000694715736543 AA.
  | Species        1: outer_partition_radius set to              5.000694715736543 AA .
  | The sparse table of interatomic distances needs        212.76 kbyte instead of       313.63 kbyte of memory.
  | Net number of integration points:    11208
  | of which are non-zero points    :     9852
  | Numerical average free-atom electrostatic potential    :    -11.97316731 eV
  Renormalizing the initial density to the exact electron count on the 3D integration grid.
  | Initial density: Formal number of electrons (from input files) :      28.0000000000
  | Integrated number of electrons on 3D grid     :      28.0039234522
  | Charge integration error                      :       0.0039234522
  | Normalization factor for density and gradient :       0.9998598963
  Obtaining max. number of non-zero basis functions in each batch (get_n_compute_maxes).
  | Maximal number of non-zero basis functions:      451 in task     0
  | Maximal number of non-zero basis functions:      466 in task     1
  | Maximal number of non-zero basis functions:      456 in task     2
  | Maximal number of non-zero basis functions:      424 in task     3
  Allocating        0.104 MB for KS_eigenvector_complex
  Integrating Hamiltonian matrix: batch-based integration.
  Time summed over all CPUs for integration: real work        0.335 s, elapsed        0.348 s
  Integrating overlap matrix.
  Time summed over all CPUs for integration: real work        0.202 s, elapsed        0.204 s
  Decreasing sparse matrix size:
   Tolerance:  9.999999824516700E-014
   Hamiltonian matrix
  | Array has    35407 nonzero elements out of    39615 elements
  | Sparsity factor is 0.106
   Overlap matrix
  | Array has    31976 nonzero elements out of    39615 elements
  | Sparsity factor is 0.193
  New size of hamiltonian matrix:       35663

  Updating Kohn-Sham eigenvalues, eigenvectors, occupation numbers, and Fermi level.
  Solving generalized eigenproblem
  Transforming overlap matrix and checking for singularities.
  Overlap matrix is nonsingular at first k-point:
  | Lowest eigenvalue:  0.757709E-02

  Obtaining occupation numbers and chemical potential using ELSI.
  | Chemical potential (Fermi level):    -5.52302983 eV
  Writing Kohn-Sham eigenvalues.
  K-point:       1 at    0.000000    0.000000    0.000000 (in units of recip. lattice)

  State    Occupation    Eigenvalue [Ha]    Eigenvalue [eV]
      1       2.00000         -65.629432        -1785.86770
      2       2.00000         -65.629430        -1785.86765
      3       2.00000          -5.116356         -139.22313
      4       2.00000          -5.116180         -139.21833
      5       2.00000          -3.509205          -95.49033
      6       2.00000          -3.509205          -95.49033
      7       2.00000          -3.509205          -95.49033
      8       2.00000          -3.508770          -95.47849
      9       2.00000          -3.508770          -95.47849
     10       2.00000          -3.508770          -95.47849
     11       2.00000          -0.634548          -17.26693
     12       2.00000          -0.220401           -5.99741
     13       2.00000          -0.220401           -5.99741
     14       2.00000          -0.220401           -5.99741
     15       0.00000          -0.131356           -3.57437
     16       0.00000          -0.120873           -3.28911
     17       0.00000          -0.120873           -3.28911
     18       0.00000          -0.120873           -3.28911
     19       0.00000           0.075267            2.04812
     20       0.00000           0.075267            2.04812

  What follows are estimated values for band gap, HOMO, LUMO, etc.
  | They are estimated on a discrete k-point grid and not necessarily exact.
  | For converged numbers, create a DOS and/or band structure plot on a denser k-grid.

  Highest occupied state (VBM) at     -5.99741163 eV (relative to internal zero)
  | Occupation number:      2.00000000
  | K-point:       1 at    0.000000    0.000000    0.000000 (in units of recip. lattice)

  Lowest unoccupied state (CBM) at    -4.93797767 eV (relative to internal zero)
  | Occupation number:      0.00000000
  | K-point:      25 at    0.500000    0.000000    0.500000 (in units of recip. lattice)

  ESTIMATED overall HOMO-LUMO gap:      1.05943397 eV between HOMO at k-point 1 and LUMO at k-point 25
  | This appears to be an indirect band gap.
  | Smallest direct gap :      2.39081745 eV for k_point 7 at    0.500000    0.000000    0.500000 (in units of recip. lattice)
  The gap value is above 0.2 eV. Unless you are using a very sparse k-point grid,
  this system is most likely an insulator or a semiconductor.
  Calculating total energy contributions from superposition of free atom densities.

  Total energy components:
  | Sum of eigenvalues            :        -328.24288829 Ha       -8931.94344266 eV
  | XC energy correction          :         -40.62687633 Ha       -1105.51355280 eV
  | XC potential correction       :          53.00197979 Ha        1442.25725131 eV
  | Free-atom electrostatic energy:        -263.80868972 Ha       -7178.59969037 eV
  | Hartree energy correction     :           0.00000000 Ha           0.00000000 eV
  | Entropy correction            :           0.00000000 Ha           0.00000000 eV
  | ---------------------------
  | Total energy                  :        -579.67647455 Ha      -15773.79943451 eV
  | Total energy, T -> 0          :        -579.67647455 Ha      -15773.79943451 eV  <-- do not rely on this value for anything but (periodic) metals
  | Electronic free energy        :        -579.67647455 Ha      -15773.79943451 eV

  Derived energy quantities:
  | Kinetic energy                :         582.20030312 Ha       15842.47630421 eV
  | Electrostatic energy          :       -1121.24990134 Ha      -30510.76218592 eV
  | Energy correction for multipole
  | error in Hartree potential    :           0.00000000 Ha           0.00000000 eV
  | Sum of eigenvalues per atom                           :       -4465.97172133 eV
  | Total energy (T->0) per atom                          :       -7886.89971726 eV  <-- do not rely on this value for anything but (periodic) metals
  | Electronic free energy per atom                       :       -7886.89971726 eV
  Initialize hartree_potential_storage
  Max. number of atoms included in rho_multipole:            2

  End scf initialization - timings             :  max(cpu_time)    wall_clock(cpu1)
  | Time for scf. initialization               :        0.254 s           0.254 s
  | Boundary condition initialization          :        0.039 s           0.039 s
  | Integration                                :        0.139 s           0.139 s
  | Solution of K.-S. eqns.                    :        0.011 s           0.011 s
  | Grid partitioning                          :        0.012 s           0.012 s
  | Preloading free-atom quantities on grid    :        0.001 s           0.001 s
  | Free-atom superposition energy             :        0.007 s           0.007 s
  | Total energy evaluation                    :        0.000 s           0.000 s

  Partial memory accounting:
  | Current value for overall tracked memory usage on task 0  :           0.817 MB
  | Peak value for overall tracked memory usage on task 0     :           4.136 MB after allocating wave_s
  | Largest tracked array allocation on task 0 so far         :           1.627 MB  when allocating hamiltonian_shell
  Note:  These values currently only include a subset of arrays which are explicitly tracked.
  The "true" memory usage will be greater.
------------------------------------------------------------
Convergence:    q app. |  density  | eigen (eV) | Etot (eV) | forces (eV/A) |       CPU time |     Clock time
  SCF    1 :  0.41E-02 |  0.10E+00 |  -0.57E+00 |  0.13E-01 |             . |        0.376 s |        0.376 s
  SCF    2 :  0.80E-02 |  0.96E-01 |   0.15E+02 |  0.11E+00 |             . |        0.395 s |        0.396 s
  SCF    3 :  0.76E-02 |  0.14E-01 |  -0.71E+00 |  0.14E-02 |             . |        0.386 s |        0.386 s
  SCF    4 :  0.48E-02 |  0.12E-01 |  -0.37E+01 |  0.63E-02 |             . |        0.396 s |        0.396 s
  SCF    5 :  0.38E-02 |  0.51E-02 |  -0.70E+00 |  0.42E-03 |             . |        0.386 s |        0.387 s
  SCF    6 :  0.38E-02 |  0.41E-02 |  -0.15E+00 |  0.12E-03 |             . |        0.385 s |        0.385 s
  SCF    7 :  0.39E-02 |  0.39E-02 |  -0.38E+00 |  0.18E-03 |             . |        0.396 s |        0.396 s
  SCF    8 :  0.39E-02 |  0.30E-02 |  -0.60E+00 |  0.26E-03 |             . |        0.387 s |        0.387 s
  SCF    9 :  0.39E-02 |  0.17E-02 |  -0.28E+00 |  0.93E-04 |             . |        0.394 s |        0.394 s
  SCF   10 :  0.40E-02 |  0.11E-02 |  -0.49E+00 |  0.15E-03 |             . |        0.386 s |        0.386 s
  SCF   11 :  0.40E-02 |  0.68E-06 |   0.11E-03 | -0.76E-07 |             . |        0.387 s |        0.388 s
  SCF   12 :  0.40E-02 |  0.20E-06 |  -0.99E-04 |  0.46E-07 |      0.49E-08 |        0.716 s |        0.715 s
  SCF   13 :  0.40E-02
  Analytical stress tensor components [eV]         xx                  yy                  zz                  xy                  xz                  yz
  -----------------------------------------------------------------------------------------------------------------------------------------------------------
    Nuclear Hellmann-Feynman      :    -0.1244194741E+02   -0.1244210831E+02   -0.1244210831E+02    0.3977508807E-12    0.1687902645E-12   -0.2622828615E-12
    Multipole Hellmann-Feynman    :    -0.3270064952E+02   -0.3270065917E+02   -0.3270065917E+02    0.2223516535E-11   -0.2643509737E-17   -0.1933454440E-12
    On-site Multipole corrections :    -0.2838563785E+00   -0.2838563784E+00   -0.2838563784E+00   -0.2706879222E-11   -0.2658542093E-12   -0.1189093373E-10
    Strain deriv. of the orbitals :     0.4697952359E+02    0.4697969489E+02    0.4697969489E+02   -0.3668485981E-10   -0.6435484508E-10   -0.2172451840E-10
  -----------------------------------------------------------------------------------------------------------------------------------------------------------
  Sum of all contributions        :     0.1553070287E+01    0.1553071039E+01    0.1553071039E+01   -0.3677047162E-10   -0.6445191167E-10   -0.3407108043E-10

  +-------------------------------------------------------------------+
  |              Analytical stress tensor - Symmetrized               |
  |                  Cartesian components [eV/A**3]                   |
  +-------------------------------------------------------------------+
  |                x                y                z                |
  |                                                                   |
  |  x         0.03537423      -0.00000000      -0.00000000           |
  |  y        -0.00000000       0.03537425      -0.00000000           |
  |  z        -0.00000000      -0.00000000       0.03537425           |
  |                                                                   |
  |  Pressure:      -0.03537424   [eV/A**3]                           |
  |                                                                   |
  +-------------------------------------------------------------------+

 |  0.60E-07 |   0.18E-04 | -0.11E-07 |      0.18E-09 |        3.711 s |        3.711 s

  Total energy components:
  | Sum of eigenvalues            :        -327.98845774 Ha       -8925.02003501 eV
  | XC energy correction          :         -40.65299759 Ha       -1106.22434850 eV
  | XC potential correction       :          53.03418975 Ha        1443.13372901 eV
  | Free-atom electrostatic energy:        -263.80868972 Ha       -7178.59969037 eV
  | Hartree energy correction     :          -0.25555953 Ha          -6.95412857 eV
  | Entropy correction            :           0.00000000 Ha           0.00000000 eV
  | ---------------------------
  | Total energy                  :        -579.67151482 Ha      -15773.66447344 eV
  | Total energy, T -> 0          :        -579.67151482 Ha      -15773.66447344 eV  <-- do not rely on this value for anything but (periodic) metals
  | Electronic free energy        :        -579.67151482 Ha      -15773.66447344 eV

  Derived energy quantities:
  | Kinetic energy                :         581.76965067 Ha       15830.75765486 eV
  | Electrostatic energy          :       -1120.78816790 Ha      -30498.19777980 eV
  | Energy correction for multipole
  | error in Hartree potential    :           0.01234227 Ha           0.33585038 eV
  | Sum of eigenvalues per atom                           :       -4462.51001751 eV
  | Total energy (T->0) per atom                          :       -7886.83223672 eV  <-- do not rely on this value for anything but (periodic) metals
  | Electronic free energy per atom                       :       -7886.83223672 eV
  What follows are estimated values for band gap, HOMO, LUMO, etc.
  | They are estimated on a discrete k-point grid and not necessarily exact.
  | For converged numbers, create a DOS and/or band structure plot on a denser k-grid.

  Highest occupied state (VBM) at     -5.55587247 eV (relative to internal zero)
  | Occupation number:      2.00000000
  | K-point:       1 at    0.000000    0.000000    0.000000 (in units of recip. lattice)

  Lowest unoccupied state (CBM) at    -4.76434393 eV (relative to internal zero)
  | Occupation number:      0.00000000
  | K-point:       9 at    0.000000    0.500000    0.500000 (in units of recip. lattice)

  ESTIMATED overall HOMO-LUMO gap:      0.79152854 eV between HOMO at k-point 1 and LUMO at k-point 9
  | This appears to be an indirect band gap.
  | Smallest direct gap :      2.29274256 eV for k_point 3 at    0.000000    0.500000    0.500000 (in units of recip. lattice)
  The gap value is above 0.2 eV. Unless you are using a very sparse k-point grid,
  this system is most likely an insulator or a semiconductor.

  Self-consistency cycle converged.

  Removing unitary transformations (pure translations, rotations) from forces on atoms.
  Atomic forces before filtering:
  | Net force on center of mass :   0.917114E-08  0.438389E-08  0.528832E-08 eV/A
  Atomic forces after filtering:
  | Net force on center of mass :   0.265846E-23  0.000000E+00  0.664615E-24 eV/A

  Energy and forces in a compact form:
  | Total energy uncorrected      :         -0.157736644734425E+05 eV
  | Total energy corrected        :         -0.157736644734425E+05 eV  <-- do not rely on this value for anything but (periodic) metals
  | Electronic free energy        :         -0.157736644734425E+05 eV
  Total atomic forces (unitary forces cleaned) [eV/Ang]:
  |   1         -0.725884020042974E-08          0.380392160291292E-08          0.109586917356332E-08
  |   2          0.725884020042974E-08         -0.380392160291292E-08         -0.109586917356332E-08

  Removing unitary transformations (pure translations, rotations) from forces on atoms.
  Atomic forces before filtering:
  | Net force on center of mass :   0.265846E-23  0.000000E+00  0.664615E-24 eV/A
  Atomic forces after filtering:
  | Net force on center of mass :   0.000000E+00  0.000000E+00  0.000000E+00 eV/A
 ------------------------------------------------------------------------
 Atomic structure that was used in the preceding time step of the wrapper
                         x [A]             y [A]             z [A]
  lattice_vector         0.00000000        2.80000000        2.80000000
  lattice_vector         2.80000000        0.00000000        2.80000000
  lattice_vector         2.80000000        2.80000000        0.00000000

            atom         0.00000000        0.00000000        0.00000000  Si
            atom         1.40000000        1.40000000        1.40000000  Si
 ------------------------------------------------------------------------
  @ DRIVER MODE: Message from server: STATUS      
  @ DRIVER MODE: Message from server: GETFORCE    
  @ DRIVER MODE: Returning v,forces,stress 
  @ DRIVER MODE: Message from server: STATUS      
  @ DRIVER MODE: Message from server: INIT        
  @ DRIVER MODE: Receiving replica           0
  @ DRIVER MODE: Message from server: STATUS      
  @ DRIVER MODE: Message from server: POSDATA     
  @ DRIVER MODE: Received positions 

------------------------------------------------------------
          Begin self-consistency loop: Re-initialization.

  Date     :  20181117, Time     :  011019.418
------------------------------------------------------------

  Initializing index lists of integration centers etc. from given atomic structure:
  Mapping all atomic coordinates to central unit cell.

  Initializing the k-points
          Using symmetry for reducing the k-points
  | k-points reduced from:       64 to       36
  | Number of k-points                             :        36
  The eigenvectors in the calculations are COMPLEX.
  | K-points in task   0:         9
  | K-points in task   1:         9
  | K-points in task   2:         9
  | K-points in task   3:         9
  | Number of basis functions in the Hamiltonian integrals :      1454
  | Number of basis functions in a single unit cell        :        36
  | Number of centers in hartree potential         :       708
  | Number of centers in hartree multipole         :       318
  | Number of centers in electron density summation:       190
  | Number of centers in basis integrals           :       198
  | Number of centers in integrals                 :       101
  | Number of centers in hamiltonian               :       190
  | Consuming         63 KiB for k_phase.
  | Number of super-cells (origin) [n_cells]                     :        2197
  | Number of super-cells (after PM_index) [n_cells]             :         112
  | Number of super-cells in hamiltonian [n_cells_in_hamiltonian]:         112
  | Size of matrix packed + index [n_hamiltonian_matrix_size] :       40359
  Partitioning the integration grid into batches with parallel hashing+maxmin method.
  Initializing partition tables, free-atom densities, potentials, etc. across the integration grid (initialize_grid_storage).
  | Species        1: outer_partition_radius set to              5.000694715736543 AA .
  | The sparse table of interatomic distances needs        212.76 kbyte instead of       313.63 kbyte of memory.
  | Net number of integration points:    11208
  | of which are non-zero points    :     9852
  Renormalizing the initial density to the exact electron count on the 3D integration grid.
  | Initial density: Formal number of electrons (from input files) :      28.0000000000
  | Integrated number of electrons on 3D grid     :      28.0041134356
  | Charge integration error                      :       0.0041134356
  | Normalization factor for density and gradient :       0.9998531132
  Calculating total energy contributions from superposition of free atom densities.
  Initialize hartree_potential_storage
  Max. number of atoms included in rho_multipole:            2
  Integrating overlap matrix.
  Time summed over all CPUs for integration: real work        0.218 s, elapsed        0.228 s
  Orthonormalizing eigenvectors

  End scf reinitialization - timings           :  max(cpu_time)    wall_clock(cpu1)
  | Time for scf. reinitialization             :        0.164 s           0.164 s
  | Boundary condition initialization          :        0.035 s           0.035 s
  | Integration                                :        0.057 s           0.058 s
  | Grid partitioning                          :        0.013 s           0.013 s
  | Preloading free-atom quantities on grid    :        0.048 s           0.048 s
  | Free-atom superposition energy             :        0.010 s           0.009 s
  | K.-S. eigenvector reorthonormalization     :        0.001 s           0.001 s
------------------------------------------------------------
Convergence:    q app. |  density  | eigen (eV) | Etot (eV) | forces (eV/A) |       CPU time |     Clock time
  SCF    1 :  0.42E-02 |  0.96E-01 |  -0.89E+04 | -0.16E+05 |             . |        0.354 s |        0.354 s
  SCF    2 :  0.42E-02 |  0.83E-03 |  -0.13E-01 |  0.51E-05 |             . |        0.407 s |        0.407 s
  SCF    3 :  0.44E-02 |  0.66E-03 |  -0.56E-01 |  0.20E-04 |             . |        0.408 s |        0.408 s
  SCF    4 :  0.41E-02 |  0.51E-04 |  -0.25E-01 |  0.13E-04 |             . |        0.424 s |        0.424 s
  SCF    5 :  0.42E-02 |  0.11E-04 |   0.29E-03 |  0.38E-06 |             . |        0.408 s |        0.408 s
  SCF    6 :  0.42E-02 |  0.81E-06 |   0.31E-03 | -0.12E-06 |             . |        0.403 s |        0.403 s
  SCF    7 :  0.42E-02 |  0.17E-06 |   0.73E-04 |  0.87E-08 |      0.35E-08 |        0.908 s |        0.908 s
  SCF    8 :  0.42E-02
  Analytical stress tensor components [eV]         xx                  yy                  zz                  xy                  xz                  yz
  -----------------------------------------------------------------------------------------------------------------------------------------------------------
    Nuclear Hellmann-Feynman      :    -0.1323362138E+02   -0.1323379099E+02   -0.1323379099E+02   -0.5393309425E-09   -0.1882744634E-08    0.3603063336E-08
    Multipole Hellmann-Feynman    :    -0.3385510666E+02   -0.3385511733E+02   -0.3385511733E+02   -0.1842236587E-08   -0.6415344841E-08    0.1228670022E-07
    On-site Multipole corrections :    -0.2836092380E+00   -0.2836092380E+00   -0.2836092381E+00   -0.5220409928E-11   -0.7733940635E-12   -0.1717176507E-10
    Strain deriv. of the orbitals :     0.4860620204E+02    0.4860638210E+02    0.4860638210E+02    0.2245165232E-08    0.7917864921E-08   -0.1502442738E-07
  -----------------------------------------------------------------------------------------------------------------------------------------------------------
  Sum of all contributions        :     0.1233864760E+01    0.1233864543E+01    0.1233864543E+01   -0.1416227078E-09   -0.3809979474E-09    0.8481644106E-09

  +-------------------------------------------------------------------+
  |              Analytical stress tensor - Symmetrized               |
  |                  Cartesian components [eV/A**3]                   |
  +-------------------------------------------------------------------+
  |                x                y                z                |
  |                                                                   |
  |  x         0.02857658      -0.00000000      -0.00000000           |
  |  y        -0.00000000       0.02857658       0.00000000           |
  |  z        -0.00000000       0.00000000       0.02857658           |
  |                                                                   |
  |  Pressure:      -0.02857658   [eV/A**3]                           |
  |                                                                   |
  +-------------------------------------------------------------------+

 |  0.16E-07 |  -0.15E-04 |  0.60E-08 |      0.88E-09 |        4.966 s |        4.967 s

  Total energy components:
  | Sum of eigenvalues            :        -327.99594574 Ha       -8925.22379384 eV
  | XC energy correction          :         -40.66355529 Ha       -1106.51163807 eV
  | XC potential correction       :          53.04821060 Ha        1443.51525576 eV
  | Free-atom electrostatic energy:        -263.77252262 Ha       -7177.61553368 eV
  | Hartree energy correction     :          -0.28857165 Ha          -7.85243403 eV
  | Entropy correction            :           0.00000000 Ha           0.00000000 eV
  | ---------------------------
  | Total energy                  :        -579.67238469 Ha      -15773.68814385 eV
  | Total energy, T -> 0          :        -579.67238469 Ha      -15773.68814385 eV  <-- do not rely on this value for anything but (periodic) metals
  | Electronic free energy        :        -579.67238469 Ha      -15773.68814385 eV

  Derived energy quantities:
  | Kinetic energy                :         581.81068494 Ha       15831.87425411 eV
  | Electrostatic energy          :       -1120.81951434 Ha      -30499.05075989 eV
  | Energy correction for multipole
  | error in Hartree potential    :           0.01282023 Ha           0.34885626 eV
  | Sum of eigenvalues per atom                           :       -4462.61189692 eV
  | Total energy (T->0) per atom                          :       -7886.84407193 eV  <-- do not rely on this value for anything but (periodic) metals
  | Electronic free energy per atom                       :       -7886.84407193 eV
  What follows are estimated values for band gap, HOMO, LUMO, etc.
  | They are estimated on a discrete k-point grid and not necessarily exact.
  | For converged numbers, create a DOS and/or band structure plot on a denser k-grid.

  Highest occupied state (VBM) at     -5.57508062 eV (relative to internal zero)
  | Occupation number:      2.00000000
  | K-point:       1 at    0.000000    0.000000    0.000000 (in units of recip. lattice)

  Lowest unoccupied state (CBM) at    -4.81066193 eV (relative to internal zero)
  | Occupation number:      0.00000000
  | K-point:      25 at    0.500000    0.000000    0.500000 (in units of recip. lattice)

  ESTIMATED overall HOMO-LUMO gap:      0.76441869 eV between HOMO at k-point 1 and LUMO at k-point 25
  | This appears to be an indirect band gap.
  | Smallest direct gap :      2.36487186 eV for k_point 3 at    0.500000    0.000000    0.500000 (in units of recip. lattice)
  The gap value is above 0.2 eV. Unless you are using a very sparse k-point grid,
  this system is most likely an insulator or a semiconductor.

  Self-consistency cycle converged.

  Removing unitary transformations (pure translations, rotations) from forces on atoms.
  Atomic forces before filtering:
  | Net force on center of mass :   0.256580E-08  0.711206E-08  0.119648E-07 eV/A
  Atomic forces after filtering:
  | Net force on center of mass :   0.332307E-24  0.132923E-23  0.224307E-23 eV/A

  Energy and forces in a compact form:
  | Total energy uncorrected      :         -0.157736881438503E+05 eV
  | Total energy corrected        :         -0.157736881438503E+05 eV  <-- do not rely on this value for anything but (periodic) metals
  | Electronic free energy        :         -0.157736881438503E+05 eV
  Total atomic forces (unitary forces cleaned) [eV/Ang]:
  |   1         -0.597483448318256E-09         -0.364826250918820E-08         -0.211891622838636E-09
  |   2          0.597483448318257E-09          0.364826250918820E-08          0.211891622838638E-09

  Removing unitary transformations (pure translations, rotations) from forces on atoms.
  Atomic forces before filtering:
  | Net force on center of mass :   0.332307E-24  0.132923E-23  0.224307E-23 eV/A
  Atomic forces after filtering:
  | Net force on center of mass :   0.000000E+00  0.000000E+00  0.000000E+00 eV/A
 ------------------------------------------------------------------------
 Atomic structure that was used in the preceding time step of the wrapper
                         x [A]             y [A]             z [A]
  lattice_vector         0.00000000        2.78446929        2.78446929
  lattice_vector         2.78446929        0.00000000        2.78446929
  lattice_vector         2.78446929        2.78446929        0.00000000

            atom        -0.00000000        0.00000000        0.00000000  Si
            atom         1.39223465        1.39223464        1.39223464  Si
 ------------------------------------------------------------------------
  @ DRIVER MODE: Message from server: STATUS      
  @ DRIVER MODE: Message from server: GETFORCE    
  @ DRIVER MODE: Returning v,forces,stress 
  @ DRIVER MODE: Message from server: STATUS      
  @ DRIVER MODE: Message from server: INIT        
  @ DRIVER MODE: Receiving replica           0
  @ DRIVER MODE: Message from server: STATUS      
  @ DRIVER MODE: Message from server: POSDATA     
  @ DRIVER MODE: Received positions 

------------------------------------------------------------
          Begin self-consistency loop: Re-initialization.

  Date     :  20181117, Time     :  011027.994
------------------------------------------------------------

  Initializing index lists of integration centers etc. from given atomic structure:
  Mapping all atomic coordinates to central unit cell.

  Initializing the k-points
          Using symmetry for reducing the k-points
  | k-points reduced from:       64 to       36
  | Number of k-points                             :        36
  The eigenvectors in the calculations are COMPLEX.
  | K-points in task   0:         9
  | K-points in task   1:         9
  | K-points in task   2:         9
  | K-points in task   3:         9
  | Number of basis functions in the Hamiltonian integrals :      1454
  | Number of basis functions in a single unit cell        :        36
  | Number of centers in hartree potential         :       780
  | Number of centers in hartree multipole         :       318
  | Number of centers in electron density summation:       198
  | Number of centers in basis integrals           :       228
  | Number of centers in integrals                 :       101
  | Number of centers in hamiltonian               :       198
  | Consuming         63 KiB for k_phase.
  | Number of super-cells (origin) [n_cells]                     :        2197
  | Number of super-cells (after PM_index) [n_cells]             :         112
  | Number of super-cells in hamiltonian [n_cells_in_hamiltonian]:         112
  | Size of matrix packed + index [n_hamiltonian_matrix_size] :       42711
  Partitioning the integration grid into batches with parallel hashing+maxmin method.
  Initializing partition tables, free-atom densities, potentials, etc. across the integration grid (initialize_grid_storage).
  | Species        1: outer_partition_radius set to              5.000694715736543 AA .
  | The sparse table of interatomic distances needs        255.65 kbyte instead of       415.87 kbyte of memory.
  | Net number of integration points:    11208
  | of which are non-zero points    :     9820
  Renormalizing the initial density to the exact electron count on the 3D integration grid.
  | Initial density: Formal number of electrons (from input files) :      28.0000000000
  | Integrated number of electrons on 3D grid     :      28.0048937933
  | Charge integration error                      :       0.0048937933
  | Normalization factor for density and gradient :       0.9998252522
  Calculating total energy contributions from superposition of free atom densities.
  Initialize hartree_potential_storage
  Max. number of atoms included in rho_multipole:            2
  Integrating overlap matrix.
  Time summed over all CPUs for integration: real work        0.297 s, elapsed        0.368 s
  Orthonormalizing eigenvectors

  End scf reinitialization - timings           :  max(cpu_time)    wall_clock(cpu1)
  | Time for scf. reinitialization             :        0.248 s           0.248 s
  | Boundary condition initialization          :        0.046 s           0.046 s
  | Integration                                :        0.092 s           0.093 s
  | Grid partitioning                          :        0.014 s           0.014 s
  | Preloading free-atom quantities on grid    :        0.081 s           0.081 s
  | Free-atom superposition energy             :        0.013 s           0.013 s
  | K.-S. eigenvector reorthonormalization     :        0.001 s           0.001 s
------------------------------------------------------------
Convergence:    q app. |  density  | eigen (eV) | Etot (eV) | forces (eV/A) |       CPU time |     Clock time
  SCF    1 :  0.50E-02 |  0.99E-01 |  -0.89E+04 | -0.16E+05 |             . |        0.602 s |        0.602 s
  SCF    2 :  0.51E-02 |  0.35E-02 |  -0.94E-01 |  0.53E-04 |             . |        0.709 s |        0.709 s
  SCF    3 :  0.56E-02 |  0.28E-02 |  -0.38E+00 |  0.17E-03 |             . |        0.698 s |        0.698 s
  SCF    4 :  0.49E-02 |  0.24E-03 |  -0.95E-01 |  0.92E-04 |             . |        0.705 s |        0.705 s
  SCF    5 :  0.50E-02 |  0.38E-04 |   0.47E-02 |  0.47E-05 |             . |        0.716 s |        0.716 s
  SCF    6 :  0.50E-02 |  0.11E-04 |   0.45E-02 | -0.34E-06 |             . |        0.699 s |        0.699 s
  SCF    7 :  0.50E-02 |  0.31E-05 |  -0.15E-02 |  0.88E-06 |             . |        0.520 s |        0.520 s
  SCF    8 :  0.50E-02 |  0.54E-07 |   0.42E-06 |  0.95E-08 |             . |        0.450 s |        0.451 s
  SCF    9 :  0.50E-02 |  0.25E-08 |  -0.80E-06 |  0.67E-09 |      0.57E-08 |        0.783 s |        0.783 s
  SCF   10 :  0.50E-02
  Analytical stress tensor components [eV]         xx                  yy                  zz                  xy                  xz                  yz
  -----------------------------------------------------------------------------------------------------------------------------------------------------------
    Nuclear Hellmann-Feynman      :    -0.1668518618E+02   -0.1668538742E+02   -0.1668538742E+02    0.7999675660E-10    0.8290004636E-08    0.5136054896E-08
    Multipole Hellmann-Feynman    :    -0.3886012160E+02   -0.3886013676E+02   -0.3886013676E+02    0.1753662922E-09    0.2691350569E-07    0.1730752877E-07
    On-site Multipole corrections :    -0.2829326650E+00   -0.2829326650E+00   -0.2829326650E+00   -0.3093576254E-11   -0.7202232216E-11   -0.1981822288E-11
    Strain deriv. of the orbitals :     0.5560396899E+02    0.5560417613E+02    0.5560417613E+02   -0.8232794911E-10   -0.3133348648E-07   -0.2084532833E-07
  -----------------------------------------------------------------------------------------------------------------------------------------------------------
  Sum of all contributions        :    -0.2242714548E+00   -0.2242807109E+00   -0.2242807109E+00    0.1699415234E-09    0.3862821616E-08    0.1596273512E-08

  +-------------------------------------------------------------------+
  |              Analytical stress tensor - Symmetrized               |
  |                  Cartesian components [eV/A**3]                   |
  +-------------------------------------------------------------------+
  |                x                y                z                |
  |                                                                   |
  |  x        -0.00555534       0.00000000       0.00000000           |
  |  y         0.00000000      -0.00555557       0.00000000           |
  |  z         0.00000000       0.00000000      -0.00555557           |
  |                                                                   |
  |  Pressure:       0.00555549   [eV/A**3]                           |
  |                                                                   |
  +-------------------------------------------------------------------+

 * Warning: Stress tensor is anisotropic. Be aware that pressure is an isotropic quantity.

 |  0.32E-08 |   0.19E-05 | -0.11E-08 |      0.21E-09 |        4.144 s |        4.145 s

  Total energy components:
  | Sum of eigenvalues            :        -328.03890256 Ha       -8926.39270847 eV
  | XC energy correction          :         -40.70728907 Ha       -1107.70169492 eV
  | XC potential correction       :          53.10630272 Ha        1445.09602272 eV
  | Free-atom electrostatic energy:        -263.61395163 Ha       -7173.30059746 eV
  | Hartree energy correction     :          -0.41993155 Ha         -11.42691888 eV
  | Entropy correction            :          -0.00000000 Ha          -0.00000000 eV
  | ---------------------------
  | Total energy                  :        -579.67377209 Ha      -15773.72589701 eV
  | Total energy, T -> 0          :        -579.67377209 Ha      -15773.72589701 eV  <-- do not rely on this value for anything but (periodic) metals
  | Electronic free energy        :        -579.67377209 Ha      -15773.72589701 eV

  Derived energy quantities:
  | Kinetic energy                :         581.98562620 Ha       15836.63464790 eV
  | Electrostatic energy          :       -1120.95210922 Ha      -30502.65884999 eV
  | Energy correction for multipole
  | error in Hartree potential    :           0.01488833 Ha           0.40513195 eV
  | Sum of eigenvalues per atom                           :       -4463.19635423 eV
  | Total energy (T->0) per atom                          :       -7886.86294850 eV  <-- do not rely on this value for anything but (periodic) metals
  | Electronic free energy per atom                       :       -7886.86294850 eV
  What follows are estimated values for band gap, HOMO, LUMO, etc.
  | They are estimated on a discrete k-point grid and not necessarily exact.
  | For converged numbers, create a DOS and/or band structure plot on a denser k-grid.

  Highest occupied state (VBM) at     -5.65955243 eV (relative to internal zero)
  | Occupation number:      2.00000000
  | K-point:       1 at    0.000000    0.000000    0.000000 (in units of recip. lattice)

  Lowest unoccupied state (CBM) at    -5.01621523 eV (relative to internal zero)
  | Occupation number:      0.00000000
  | K-point:       9 at    0.000000    0.500000    0.500000 (in units of recip. lattice)

  ESTIMATED overall HOMO-LUMO gap:      0.64333720 eV between HOMO at k-point 1 and LUMO at k-point 9
  | This appears to be an indirect band gap.
  | Smallest direct gap :      2.53906924 eV for k_point 1 at    0.000000    0.500000    0.500000 (in units of recip. lattice)
  The gap value is above 0.2 eV. Unless you are using a very sparse k-point grid,
  this system is most likely an insulator or a semiconductor.

  Self-consistency cycle converged.

  Removing unitary transformations (pure translations, rotations) from forces on atoms.
  Atomic forces before filtering:
  | Net force on center of mass :   0.126417E-08 -0.564051E-08 -0.993818E-09 eV/A
  Atomic forces after filtering:
  | Net force on center of mass :   0.664615E-24  0.000000E+00  0.000000E+00 eV/A

  Energy and forces in a compact form:
  | Total energy uncorrected      :         -0.157737258970053E+05 eV
  | Total energy corrected        :         -0.157737258970053E+05 eV  <-- do not rely on this value for anything but (periodic) metals
  | Electronic free energy        :         -0.157737258970053E+05 eV
  Total atomic forces (unitary forces cleaned) [eV/Ang]:
  |   1          0.231674083168383E-08          0.122871607764545E-07          0.126538436638794E-08
  |   2         -0.231674083168383E-08         -0.122871607764545E-07         -0.126538436638794E-08

  Removing unitary transformations (pure translations, rotations) from forces on atoms.
  Atomic forces before filtering:
  | Net force on center of mass :   0.664615E-24  0.000000E+00  0.000000E+00 eV/A
  Atomic forces after filtering:
  | Net force on center of mass :   0.000000E+00  0.000000E+00  0.000000E+00 eV/A
 ------------------------------------------------------------------------
 Atomic structure that was used in the preceding time step of the wrapper
                         x [A]             y [A]             z [A]
  lattice_vector         0.00000000        2.72277161        2.72277161
  lattice_vector         2.72277161       -0.00000000        2.72277161
  lattice_vector         2.72277161        2.72277161       -0.00000000

            atom        -0.00000000       -0.00000000        0.00000000  Si
            atom         1.36138580        1.36138581        1.36138581  Si
 ------------------------------------------------------------------------
  @ DRIVER MODE: Message from server: STATUS      
  @ DRIVER MODE: Message from server: GETFORCE    
  @ DRIVER MODE: Returning v,forces,stress 
  @ DRIVER MODE: Message from server: STATUS      
  @ DRIVER MODE: Message from server: INIT        
  @ DRIVER MODE: Receiving replica           0
  @ DRIVER MODE: Message from server: STATUS      
  @ DRIVER MODE: Message from server: POSDATA     
  @ DRIVER MODE: Received positions 

------------------------------------------------------------
          Begin self-consistency loop: Re-initialization.

  Date     :  20181117, Time     :  011038.402
------------------------------------------------------------

  Initializing index lists of integration centers etc. from given atomic structure:
  Mapping all atomic coordinates to central unit cell.

  Initializing the k-points
          Using symmetry for reducing the k-points
  | k-points reduced from:       64 to       36
  | Number of k-points                             :        36
  The eigenvectors in the calculations are COMPLEX.
  | K-points in task   0:         9
  | K-points in task   1:         9
  | K-points in task   2:         9
  | K-points in task   3:         9
  | Number of basis functions in the Hamiltonian integrals :      1454
  | Number of basis functions in a single unit cell        :        36
  | Number of centers in hartree potential         :       732
  | Number of centers in hartree multipole         :       318
  | Number of centers in electron density summation:       198
  | Number of centers in basis integrals           :       228
  | Number of centers in integrals                 :       101
  | Number of centers in hamiltonian               :       198
  | Consuming         63 KiB for k_phase.
  | Number of super-cells (origin) [n_cells]                     :        2197
  | Number of super-cells (after PM_index) [n_cells]             :         112
  | Number of super-cells in hamiltonian [n_cells_in_hamiltonian]:         112
  | Size of matrix packed + index [n_hamiltonian_matrix_size] :       42711
  Partitioning the integration grid into batches with parallel hashing+maxmin method.
  Initializing partition tables, free-atom densities, potentials, etc. across the integration grid (initialize_grid_storage).
  | Species        1: outer_partition_radius set to              5.000694715736543 AA .
  | The sparse table of interatomic distances needs        255.65 kbyte instead of       415.87 kbyte of memory.
  | Net number of integration points:    11208
  | of which are non-zero points    :     9820
  Renormalizing the initial density to the exact electron count on the 3D integration grid.
  | Initial density: Formal number of electrons (from input files) :      28.0000000000
  | Integrated number of electrons on 3D grid     :      28.0047767204
  | Charge integration error                      :       0.0047767204
  | Normalization factor for density and gradient :       0.9998294319
  Calculating total energy contributions from superposition of free atom densities.
  Initialize hartree_potential_storage
  Max. number of atoms included in rho_multipole:            2
  Integrating overlap matrix.
  Time summed over all CPUs for integration: real work        0.241 s, elapsed        0.246 s
  Orthonormalizing eigenvectors

  End scf reinitialization - timings           :  max(cpu_time)    wall_clock(cpu1)
  | Time for scf. reinitialization             :        0.199 s           0.199 s
  | Boundary condition initialization          :        0.049 s           0.049 s
  | Integration                                :        0.062 s           0.062 s
  | Grid partitioning                          :        0.015 s           0.015 s
  | Preloading free-atom quantities on grid    :        0.062 s           0.062 s
  | Free-atom superposition energy             :        0.010 s           0.010 s
  | K.-S. eigenvector reorthonormalization     :        0.001 s           0.001 s
------------------------------------------------------------
Convergence:    q app. |  density  | eigen (eV) | Etot (eV) | forces (eV/A) |       CPU time |     Clock time
  SCF    1 :  0.49E-02 |  0.10E+00 |  -0.89E+04 | -0.16E+05 |             . |        0.413 s |        0.413 s
  SCF    2 :  0.48E-02 |  0.58E-03 |   0.15E-01 | -0.35E-05 |             . |        0.470 s |        0.470 s
  SCF    3 :  0.48E-02 |  0.46E-03 |   0.60E-01 | -0.18E-04 |             . |        0.476 s |        0.477 s
  SCF    4 :  0.49E-02 |  0.35E-04 |   0.15E-01 | -0.12E-04 |             . |        0.479 s |        0.479 s
  SCF    5 :  0.49E-02 |  0.69E-05 |  -0.13E-02 |  0.45E-06 |             . |        0.461 s |        0.461 s
  SCF    6 :  0.49E-02 |  0.48E-06 |   0.56E-04 | -0.32E-07 |             . |        0.444 s |        0.443 s
  SCF    7 :  0.49E-02 |  0.37E-06 |   0.16E-03 | -0.76E-07 |      0.35E-08 |        0.775 s |        0.775 s
  SCF    8 :  0.49E-02
  Analytical stress tensor components [eV]         xx                  yy                  zz                  xy                  xz                  yz
  -----------------------------------------------------------------------------------------------------------------------------------------------------------
    Nuclear Hellmann-Feynman      :    -0.1610878978E+02   -0.1610898670E+02   -0.1610898670E+02   -0.6052554299E-09    0.8111593953E-09    0.3707058700E-08
    Multipole Hellmann-Feynman    :    -0.3802927596E+02   -0.3802929254E+02   -0.3802929254E+02   -0.2035300458E-08    0.2877826450E-08    0.1268147959E-07
    On-site Multipole corrections :    -0.2829878716E+00   -0.2829878712E+00   -0.2829878712E+00    0.3866970317E-11    0.1256765353E-11    0.4205330220E-11
    Strain deriv. of the orbitals :     0.5444633881E+02    0.5444654609E+02    0.5444654609E+02    0.2418194027E-08   -0.3248756564E-08   -0.1553528740E-07
  -----------------------------------------------------------------------------------------------------------------------------------------------------------
  Sum of all contributions        :     0.2528520605E-01    0.2527897169E-01    0.2527897155E-01   -0.2184948907E-09    0.4414860469E-09    0.8574562259E-09

  +-------------------------------------------------------------------+
  |              Analytical stress tensor - Symmetrized               |
  |                  Cartesian components [eV/A**3]                   |
  +-------------------------------------------------------------------+
  |                x                y                z                |
  |                                                                   |
  |  x         0.00061970      -0.00000000       0.00000000           |
  |  y        -0.00000000       0.00061955       0.00000000           |
  |  z         0.00000000       0.00000000       0.00061955           |
  |                                                                   |
  |  Pressure:      -0.00061960   [eV/A**3]                           |
  |                                                                   |
  +-------------------------------------------------------------------+

 * Warning: Stress tensor is anisotropic. Be aware that pressure is an isotropic quantity.

 |  0.34E-07 |  -0.54E-04 |  0.16E-07 |      0.78E-09 |        5.163 s |        5.163 s

  Total energy components:
  | Sum of eigenvalues            :        -328.03079265 Ha       -8926.17202657 eV
  | XC energy correction          :         -40.70022871 Ha       -1107.50957275 eV
  | XC potential correction       :          53.09692249 Ha        1444.84077362 eV
  | Free-atom electrostatic energy:        -263.64047453 Ha       -7174.02232222 eV
  | Hartree energy correction     :          -0.39922141 Ha         -10.86336721 eV
  | Entropy correction            :          -0.00000000 Ha          -0.00000000 eV
  | ---------------------------
  | Total energy                  :        -579.67379481 Ha      -15773.72651513 eV
  | Total energy, T -> 0          :        -579.67379481 Ha      -15773.72651513 eV  <-- do not rely on this value for anything but (periodic) metals
  | Electronic free energy        :        -579.67379481 Ha      -15773.72651513 eV

  Derived energy quantities:
  | Kinetic energy                :         581.95675915 Ha       15835.84913559 eV
  | Electrostatic energy          :       -1120.93032525 Ha      -30502.06607797 eV
  | Energy correction for multipole
  | error in Hartree potential    :           0.01455029 Ha           0.39593353 eV
  | Sum of eigenvalues per atom                           :       -4463.08601328 eV
  | Total energy (T->0) per atom                          :       -7886.86325756 eV  <-- do not rely on this value for anything but (periodic) metals
  | Electronic free energy per atom                       :       -7886.86325756 eV
  What follows are estimated values for band gap, HOMO, LUMO, etc.
  | They are estimated on a discrete k-point grid and not necessarily exact.
  | For converged numbers, create a DOS and/or band structure plot on a denser k-grid.

  Highest occupied state (VBM) at     -5.64541271 eV (relative to internal zero)
  | Occupation number:      2.00000000
  | K-point:       1 at    0.000000    0.000000    0.000000 (in units of recip. lattice)

  Lowest unoccupied state (CBM) at    -4.98152842 eV (relative to internal zero)
  | Occupation number:      0.00000000
  | K-point:       9 at    0.000000    0.500000    0.500000 (in units of recip. lattice)

  ESTIMATED overall HOMO-LUMO gap:      0.66388428 eV between HOMO at k-point 1 and LUMO at k-point 9
  | This appears to be an indirect band gap.
  | Smallest direct gap :      2.53302568 eV for k_point 1 at    0.000000    0.500000    0.500000 (in units of recip. lattice)
  The gap value is above 0.2 eV. Unless you are using a very sparse k-point grid,
  this system is most likely an insulator or a semiconductor.

  Self-consistency cycle converged.

  Removing unitary transformations (pure translations, rotations) from forces on atoms.
  Atomic forces before filtering:
  | Net force on center of mass :   0.529521E-08  0.307681E-08 -0.116079E-08 eV/A
  Atomic forces after filtering:
  | Net force on center of mass :   0.000000E+00  0.000000E+00 -0.166154E-24 eV/A

  Energy and forces in a compact form:
  | Total energy uncorrected      :         -0.157737265151283E+05 eV
  | Total energy corrected        :         -0.157737265151283E+05 eV  <-- do not rely on this value for anything but (periodic) metals
  | Electronic free energy        :         -0.157737265151283E+05 eV
  Total atomic forces (unitary forces cleaned) [eV/Ang]:
  |   1          0.307056447470822E-08         -0.195661479392376E-08          0.171700982493825E-09
  |   2         -0.307056447470822E-08          0.195661479392376E-08         -0.171700982493826E-09

  Removing unitary transformations (pure translations, rotations) from forces on atoms.
  Atomic forces before filtering:
  | Net force on center of mass :   0.000000E+00  0.000000E+00 -0.166154E-24 eV/A
  Atomic forces after filtering:
  | Net force on center of mass :   0.000000E+00  0.000000E+00  0.000000E+00 eV/A
 ------------------------------------------------------------------------
 Atomic structure that was used in the preceding time step of the wrapper
                         x [A]             y [A]             z [A]
  lattice_vector        -0.00000000        2.73244272        2.73244272
  lattice_vector         2.73244264       -0.00000000        2.73244272
  lattice_vector         2.73244264        2.73244272       -0.00000000

            atom        -0.00000000       -0.00000000        0.00000000  Si
            atom         1.36622132        1.36622136        1.36622136  Si
 ------------------------------------------------------------------------
  @ DRIVER MODE: Message from server: STATUS      
  @ DRIVER MODE: Message from server: GETFORCE    
  @ DRIVER MODE: Returning v,forces,stress 
  @ DRIVER MODE: Message from server: STATUS      
  @ DRIVER MODE: Message from server: INIT        
  @ DRIVER MODE: Receiving replica           0
  @ DRIVER MODE: Message from server: STATUS      
  @ DRIVER MODE: Message from server: POSDATA     
  @ DRIVER MODE: Received positions 

------------------------------------------------------------
          Begin self-consistency loop: Re-initialization.

  Date     :  20181117, Time     :  011047.418
------------------------------------------------------------

  Initializing index lists of integration centers etc. from given atomic structure:
  Mapping all atomic coordinates to central unit cell.

  Initializing the k-points
          Using symmetry for reducing the k-points
  | k-points reduced from:       64 to       36
  | Number of k-points                             :        36
  The eigenvectors in the calculations are COMPLEX.
  | K-points in task   0:         9
  | K-points in task   1:         9
  | K-points in task   2:         9
  | K-points in task   3:         9
  | Number of basis functions in the Hamiltonian integrals :      1454
  | Number of basis functions in a single unit cell        :        36
  | Number of centers in hartree potential         :       732
  | Number of centers in hartree multipole         :       318
  | Number of centers in electron density summation:       198
  | Number of centers in basis integrals           :       228
  | Number of centers in integrals                 :       101
  | Number of centers in hamiltonian               :       198
  | Consuming         63 KiB for k_phase.
  | Number of super-cells (origin) [n_cells]                     :        2197
  | Number of super-cells (after PM_index) [n_cells]             :         112
  | Number of super-cells in hamiltonian [n_cells_in_hamiltonian]:         112
  | Size of matrix packed + index [n_hamiltonian_matrix_size] :       42711
  Partitioning the integration grid into batches with parallel hashing+maxmin method.
  Initializing partition tables, free-atom densities, potentials, etc. across the integration grid (initialize_grid_storage).
  | Species        1: outer_partition_radius set to              5.000694715736543 AA .
  | The sparse table of interatomic distances needs        255.65 kbyte instead of       415.87 kbyte of memory.
  | Net number of integration points:    11208
  | of which are non-zero points    :     9820
  Renormalizing the initial density to the exact electron count on the 3D integration grid.
  | Initial density: Formal number of electrons (from input files) :      28.0000000000
  | Integrated number of electrons on 3D grid     :      28.0047887843
  | Charge integration error                      :       0.0047887843
  | Normalization factor for density and gradient :       0.9998290012
  Calculating total energy contributions from superposition of free atom densities.
  Initialize hartree_potential_storage
  Max. number of atoms included in rho_multipole:            2
  Integrating overlap matrix.
  Time summed over all CPUs for integration: real work        0.291 s, elapsed        0.304 s
  Orthonormalizing eigenvectors

  End scf reinitialization - timings           :  max(cpu_time)    wall_clock(cpu1)
  | Time for scf. reinitialization             :        0.247 s           0.247 s
  | Boundary condition initialization          :        0.059 s           0.059 s
  | Integration                                :        0.077 s           0.076 s
  | Grid partitioning                          :        0.023 s           0.022 s
  | Preloading free-atom quantities on grid    :        0.074 s           0.074 s
  | Free-atom superposition energy             :        0.013 s           0.014 s
  | K.-S. eigenvector reorthonormalization     :        0.001 s           0.001 s
------------------------------------------------------------
Convergence:    q app. |  density  | eigen (eV) | Etot (eV) | forces (eV/A) |       CPU time |     Clock time
  SCF    1 :  0.49E-02 |  0.10E+00 |  -0.89E+04 | -0.16E+05 |             . |        0.545 s |        0.545 s
  SCF    2 :  0.49E-02 |  0.58E-04 |  -0.16E-02 |  0.52E-06 |             . |        0.621 s |        0.620 s
  SCF    3 :  0.49E-02 |  0.46E-04 |  -0.64E-02 |  0.23E-05 |             . |        0.706 s |        0.707 s
  SCF    4 :  0.49E-02 |  0.27E-05 |  -0.12E-02 |  0.88E-06 |             . |        0.663 s |        0.663 s
  SCF    5 :  0.49E-02 |  0.65E-06 |   0.14E-03 |  0.56E-07 |             . |        0.625 s |        0.626 s
  SCF    6 :  0.49E-02 |  0.14E-07 |   0.13E-04 | -0.25E-08 |      0.49E-08 |        1.262 s |        1.261 s
  SCF    7 :  0.49E-02
  Analytical stress tensor components [eV]         xx                  yy                  zz                  xy                  xz                  yz
  -----------------------------------------------------------------------------------------------------------------------------------------------------------
    Nuclear Hellmann-Feynman      :    -0.1616636367E+02   -0.1616656127E+02   -0.1616656127E+02   -0.6623674641E-09    0.1754391865E-08    0.2080031410E-08
    Multipole Hellmann-Feynman    :    -0.3811235722E+02   -0.3811237504E+02   -0.3811237504E+02   -0.2252530054E-08    0.5949966441E-08    0.7489914072E-08
    On-site Multipole corrections :    -0.2829813602E+00   -0.2829813596E+00   -0.2829813596E+00    0.9280728761E-11   -0.1169758521E-10   -0.6767198055E-12
    Strain deriv. of the orbitals :     0.5456216908E+02    0.5456237856E+02    0.5456237856E+02    0.2769700874E-08   -0.7379854549E-08   -0.9474219268E-08
  -----------------------------------------------------------------------------------------------------------------------------------------------------------
  Sum of all contributions        :     0.4668196217E-03    0.4608825142E-03    0.4608828523E-03   -0.1359159151E-09    0.3128061718E-09    0.9504949362E-10

  +-------------------------------------------------------------------+
  |              Analytical stress tensor - Symmetrized               |
  |                  Cartesian components [eV/A**3]                   |
  +-------------------------------------------------------------------+
  |                x                y                z                |
  |                                                                   |
  |  x         0.00001145      -0.00000000       0.00000000           |
  |  y        -0.00000000       0.00001131       0.00000000           |
  |  z         0.00000000       0.00000000       0.00001131           |
  |                                                                   |
  |  Pressure:      -0.00001136   [eV/A**3]                           |
  |                                                                   |
  +-------------------------------------------------------------------+

 * Warning: Stress tensor is anisotropic. Be aware that pressure is an isotropic quantity.

 |  0.16E-07 |  -0.99E-05 |  0.35E-08 |      0.28E-09 |        5.154 s |        5.155 s

  Total energy components:
  | Sum of eigenvalues            :        -328.03158797 Ha       -8926.19366842 eV
  | XC energy correction          :         -40.70093798 Ha       -1107.52887301 eV
  | XC potential correction       :          53.09786477 Ha        1444.86641450 eV
  | Free-atom electrostatic energy:        -263.63782567 Ha       -7173.95024312 eV
  | Hartree energy correction     :          -0.40131003 Ha         -10.92020159 eV
  | Entropy correction            :          -0.00000000 Ha          -0.00000000 eV
  | ---------------------------
  | Total energy                  :        -579.67379689 Ha      -15773.72657164 eV
  | Total energy, T -> 0          :        -579.67379689 Ha      -15773.72657164 eV  <-- do not rely on this value for anything but (periodic) metals
  | Electronic free energy        :        -579.67379689 Ha      -15773.72657164 eV

  Derived energy quantities:
  | Kinetic energy                :         581.95964673 Ha       15835.92771077 eV
  | Electrostatic energy          :       -1120.93250564 Ha      -30502.12540939 eV
  | Energy correction for multipole
  | error in Hartree potential    :           0.01458426 Ha           0.39685783 eV
  | Sum of eigenvalues per atom                           :       -4463.09683421 eV
  | Total energy (T->0) per atom                          :       -7886.86328582 eV  <-- do not rely on this value for anything but (periodic) metals
  | Electronic free energy per atom                       :       -7886.86328582 eV
  What follows are estimated values for band gap, HOMO, LUMO, etc.
  | They are estimated on a discrete k-point grid and not necessarily exact.
  | For converged numbers, create a DOS and/or band structure plot on a denser k-grid.

  Highest occupied state (VBM) at     -5.64682525 eV (relative to internal zero)
  | Occupation number:      2.00000000
  | K-point:       1 at    0.000000    0.000000    0.000000 (in units of recip. lattice)

  Lowest unoccupied state (CBM) at    -4.98498769 eV (relative to internal zero)
  | Occupation number:      0.00000000
  | K-point:       9 at    0.000000    0.500000    0.500000 (in units of recip. lattice)

  ESTIMATED overall HOMO-LUMO gap:      0.66183757 eV between HOMO at k-point 1 and LUMO at k-point 9
  | This appears to be an indirect band gap.
  | Smallest direct gap :      2.53363569 eV for k_point 1 at    0.000000    0.500000    0.500000 (in units of recip. lattice)
  The gap value is above 0.2 eV. Unless you are using a very sparse k-point grid,
  this system is most likely an insulator or a semiconductor.

  Self-consistency cycle converged.

  Removing unitary transformations (pure translations, rotations) from forces on atoms.
  Atomic forces before filtering:
  | Net force on center of mass :   0.121182E-07  0.361435E-08  0.791417E-08 eV/A
  Atomic forces after filtering:
  | Net force on center of mass :   0.265846E-23  0.166154E-24  0.132923E-23 eV/A

  Energy and forces in a compact form:
  | Total energy uncorrected      :         -0.157737265716357E+05 eV
  | Total energy corrected        :         -0.157737265716357E+05 eV  <-- do not rely on this value for anything but (periodic) metals
  | Electronic free energy        :         -0.157737265716357E+05 eV
  Total atomic forces (unitary forces cleaned) [eV/Ang]:
  |   1          0.720087279168356E-08         -0.649377866793098E-09         -0.382890526865387E-08
  |   2         -0.720087279168356E-08          0.649377866793098E-09          0.382890526865387E-08

  Removing unitary transformations (pure translations, rotations) from forces on atoms.
  Atomic forces before filtering:
  | Net force on center of mass :   0.265846E-23  0.166154E-24  0.132923E-23 eV/A
  Atomic forces after filtering:
  | Net force on center of mass :   0.000000E+00  0.000000E+00  0.000000E+00 eV/A
 ------------------------------------------------------------------------
 Atomic structure that was used in the preceding time step of the wrapper
                         x [A]             y [A]             z [A]
  lattice_vector        -0.00000000        2.73146615        2.73146615
  lattice_vector         2.73146601       -0.00000000        2.73146615
  lattice_vector         2.73146601        2.73146615       -0.00000000

            atom        -0.00000000       -0.00000000        0.00000000  Si
            atom         1.36573300        1.36573307        1.36573307  Si
 ------------------------------------------------------------------------
  @ DRIVER MODE: Message from server: STATUS      
  @ DRIVER MODE: Message from server: GETFORCE    
  @ DRIVER MODE: Returning v,forces,stress 

------------------------------------------------------------------------------
  Final output of selected total energy values:

  The following output summarizes some interesting total energy values
  at the end of a run (AFTER all relaxation, molecular dynamics, etc.).

  | Total energy of the DFT / Hartree-Fock s.c.f. calculation      :         -15773.726571636 eV
  | Final zero-broadening corrected energy (caution - metals only) :         -15773.726571636 eV
  | For reference only, the value of 1 Hartree used in FHI-aims is :             27.211384500 eV
  | For reference only, the overall average (free atom contribution
  | + realspace contribution) of the electrostatic potential after
  | s.c.f. convergence is                                          :            -12.620116898 eV

  Before relying on these values, please be sure to understand exactly which
  total energy value is referred to by a given number. Different objects may
  all carry the same name 'total energy'. Definitions:

  Total energy of the DFT / Hartree-Fock s.c.f. calculation:
  | Note that this energy does not include ANY quantities calculated after the
  | s.c.f. cycle, in particular not ANY RPA, MP2, etc. many-body perturbation terms.

  Final zero-broadening corrected energy:
  | For metallic systems only, a broadening of the occupation numbers at the Fermi
  | level can be extrapolated back to zero broadening by an electron-gas inspired
  | formula. For all systems that are not real metals, this value can be
  | meaningless and should be avoided.

------------------------------------------------------------------------------
  Methods described in the following list of references were used in this FHI-aims run.
  If you publish the results, please make sure to cite these reference if they apply.
  FHI-aims is an academic code, and for our developers (often, Ph.D. students
  and postdocs), scientific credit in the community is essential.
  Thank you for helping us!

  For any use of FHI-aims, please cite:

    Volker Blum, Ralf Gehrke, Felix Hanke, Paula Havu, Ville Havu,
    Xinguo Ren, Karsten Reuter, and Matthias Scheffler
    'Ab initio molecular simulations with numeric atom-centered orbitals'
    Computer Physics Communications 180, 2175-2196 (2009)
    http://dx.doi.org/10.1016/j.cpc.2009.06.022


  For the analytical stress tensor used in your run, please cite:

    Franz Knuth, Christian Carbogno, Viktor Atalla, Volker Blum, Matthias Scheffler
    'All-electron formalism for total energy strain derivatives and
    stress tensor components for numeric atom-centered orbitals'
    Computer Physics Communications 190, 33-50 (2015).
    http://dx.doi.org/10.1016/j.cpc.2015.01.003


  The provided symmetry information was generated with SPGlib:

    Atsushi Togo, Yusuke Seto, Dimitar Pashov
    SPGlib 1.7.3 obtained from http://spglib.sourceforge.net
    Copyright (C) 2008 Atsushi Togo


  For the real-space grid partitioning and parallelization used in this calculation, please cite:

    Ville Havu, Volker Blum, Paula Havu, and Matthias Scheffler,
    'Efficient O(N) integration for all-electron electronic structure calculation'
    'using numerically tabulated basis functions'
    Journal of Computational Physics 228, 8367-8379 (2009).
    http://dx.doi.org/10.1016/j.jcp.2009.08.008

  Of course, there are many other important community references, e.g., those cited in the
  above references. Our list is limited to references that describe implementations in the
  FHI-aims code. The reason is purely practical (length of this list) - please credit others as well.

------------------------------------------------------------
          Leaving FHI-aims.
          Date     :  20181117, Time     :  011057.290

          Computational steps:
          | Number of self-consistency cycles          :           46
          | Number of SCF (re)initializations          :            5

          Detailed time accounting                     :  max(cpu_time)    wall_clock(cpu1)
          | Total time                                 :       47.131 s          47.133 s
          | Preparation time                           :        0.112 s           0.114 s
          | Boundary condition initalization           :        0.227 s           0.228 s
          | Grid partitioning                          :        0.076 s           0.076 s
          | Preloading free-atom quantities on grid    :        0.265 s           0.266 s
          | Free-atom superposition energy             :        0.053 s           0.053 s
          | Total time for integrations                :        5.308 s           5.309 s
          | Total time for solution of K.-S. equations :        0.241 s           0.244 s
          | Total time for density & force components  :       26.990 s          26.991 s
          | Total time for mixing & preconditioning    :        1.918 s           1.922 s
          | Total time for Hartree multipole update    :        0.031 s           0.025 s
          | Total time for Hartree multipole sum       :       11.201 s          11.202 s
          | Total time for total energy evaluation     :        0.004 s           0.001 s
          | Total time for scaled ZORA corrections     :        0.000 s           0.000 s

          Partial memory accounting:
          | Residual value for overall tracked memory usage across tasks :     0.000000 MB (should be 0.000000 MB)
          | Peak values for overall tracked memory usage (after allocating d_wave):
          |   Minimum:       10.901 MB (on task 1)
          |   Maximum:       11.596 MB (on task 3)
          |   Average:       11.215 MB
          | Largest tracked array allocation (hessian_basis_wave):
          |   Minimum:        2.559 MB (on task 1)
          |   Maximum:        2.711 MB (on task 3)
          |   Average:        2.628 MB
          Note:  These values currently only include a subset of arrays which are explicitly tracked.
          The "true" memory usage will be greater.

------------------------------------------------------------
